# vtk DataFile Version 3.0
vtk output
ASCII
DATASET STRUCTURED_GRID
DIMENSIONS 1 8 8
POINTS 64 float
1.31054 -9.89526 -9.94458 1.28117 -7.02102 -9.93008 1.24956 -4.1434 -9.89969 
1.1854 -1.24457 -9.81883 1.15295 1.35716 -9.70926 1.28615 4.05853 -9.79116 
1.31732 6.78503 -10.4485 1.26004 10.1024 -10.0007 1.31073 -9.96186 -7.18087 
1.20111 -6.97043 -7.28147 1.1549 -4.10073 -7.22081 1.26501 -1.15057 -7.12754 
1.65866 1.64887 -6.67466 1.60733 4.12768 -6.83022 1.46932 6.68687 -6.33341 
1.31691 10.0222 -6.87476 1.49215 -10.3748 -4.02958 1.32177 -6.09885 -3.86356 
1.04666 -4.27436 -4.55848 1.4769 -1.14235 -4.34316 0.536687 1.52423 -4.1291 
1.20528 4.25406 -4.25653 1.42077 6.81931 -4.05234 1.33937 9.73386 -4.13206 
1.6334 -9.77474 -1.53205 1.33711 -6.73034 -1.35863 0.586313 -5.06948 -1.78833 
1.78354 -1.15243 -1.35627 1.46795 1.67183 -1.47889 1.48166 4.34437 -1.61975 
1.82746 6.81255 -1.40346 1.36293 9.63309 -1.41188 1.52429 -9.85621 1.29275 
1.41668 -6.79598 1.36933 1.46041 -4.26055 1.42129 1.52661 -1.35301 1.49725 
1.49564 1.49247 1.34691 1.41938 4.26723 1.22206 1.64025 7.04572 1.28138 
1.41238 9.70703 1.36885 1.45354 -9.72867 4.20083 1.43551 -6.5366 4.5906 
1.44896 -4.38782 4.58426 1.43994 -1.47789 4.37173 1.44744 1.3856 4.19993 
1.48251 4.32706 4.21719 1.58111 7.03216 4.18628 1.37785 9.75297 4.21321 
2.03621 -9.57387 7.03923 1.44118 -6.41081 6.76106 1.6898 -4.24404 6.92608 
1.57412 -1.62143 7.14466 1.40681 1.25129 7.16285 1.36862 4.32722 7.06551 
1.30203 7.03704 7.04665 1.29697 9.79019 7.06049 1.35393 -9.80923 10.1092 
1.33943 -6.8501 9.84985 1.4316 -4.07598 9.66812 1.39696 -1.49968 9.72215 
1.32109 1.33697 9.85233 1.28425 4.26474 9.84937 1.20314 7.0486 9.80072 
1.26962 9.82858 9.8718 
CELL_DATA 49
FIELD FieldData 1
zonal 1 49 float
2.29363 2.65214 3.01935 3.5464 3.70934 3.19218 2.93179 2.46183 3.22544 
3.35377 3.64261 3.77332 3.42347 3.14842 2.49288 3.26446 3.20132 3.27607 
4.21548 4.18059 3.56495 2.47013 3.13377 2.58455 2.76836 3.71761 3.67984 
3.53692 1.3736 2.87118 3.13767 3.17281 3.39691 3.35302 3.19654 2.14197 
3.0191 3.4478 3.42226 3.34054 3.21616 3.2264 2.04518 2.94998 3.39323 
3.62591 3.34755 3.32206 3.55842 
POINT_DATA 64
SCALARS nodal float
LOOKUP_TABLE default
3.42189 3.4667 3.56669 3.72235 3.80443 3.65427 2.95209 3.30242 3.25356 
3.24184 3.38496 3.69467 4.02004 3.82223 3.19815 3.3927 3.01651 2.42253 
2.85452 3.60154 3.6525 4.02577 3.7858 3.66485 3.28854 3.36287 3.81088 
3.49163 3.81422 3.91871 4.09723 3.75102 3.08186 3.30164 3.49284 3.56928 
3.69264 3.76713 3.84671 3.74988 3.08513 3.54922 3.68271 3.62867 3.60582 
3.68328 3.79978 3.7332 1.92625 3.56135 3.80001 3.75231 3.48274 3.62329 
3.74084 3.70981 3.10804 3.44312 3.69466 3.74858 3.66647 3.67055 3.72268 
3.68869 
