# vtk DataFile Version 3.0
vtk output
ASCII
DATASET STRUCTURED_GRID
DIMENSIONS 8 1 8
POINTS 64 float
-9.95313 1.2154 -9.80136 -7.5526 1.52364 -10.1931 -4.08347 1.08863 -9.25934 
-1.46009 1.13251 -9.70323 1.2455 1.274 -9.7133 4.17464 1.34338 -9.71464 
7.04275 1.34285 -9.76914 9.88424 1.34972 -9.81744 -9.86599 0.877341 -6.96353 
-7.19408 1.15882 -7.71469 -4.13927 1.00778 -7.74383 -1.49966 1.22307 -7.214 
1.75538 1.56583 -6.67164 4.04224 1.50023 -6.58057 6.97049 1.42052 -6.77092 
9.795 1.42086 -6.89869 -9.78719 1.47962 -4.01539 -7.40988 0.971564 -3.70476 
-4.08259 1.09689 -4.30895 -1.21754 1.83308 -4.09296 0.630945 1.42014 -4.13786 
3.66261 1.63306 -4.51746 6.86156 1.38214 -3.84653 9.59835 1.48133 -4.03568 
-8.88639 1.80984 -1.97787 -7.72728 1.41001 -1.68998 -4.23576 1.26769 -1.52196 
-1.24601 1.64297 -1.69526 1.57393 1.57404 -1.46703 4.59116 1.42406 -1.59608 
7.0954 1.44035 -1.49181 9.39414 1.34172 -1.46335 -9.92658 1.44378 1.17669 
-7.15155 1.51316 1.23207 -4.18216 1.42466 1.42481 -1.30269 1.40137 1.40014 
1.59462 1.39611 1.35031 4.50998 1.41973 1.28266 7.14179 1.49964 1.48802 
9.52368 1.39802 1.3916 -9.94585 1.40752 4.25824 -7.03061 1.53322 4.33011 
-4.14018 1.57295 4.34466 -1.38427 1.29824 4.27752 1.54624 1.28848 4.20322 
4.4258 1.39223 4.14229 7.93906 1.9024 2.92871 9.46944 1.58622 4.12361 
-9.89321 1.36373 7.12833 -6.99892 1.38157 7.17031 -4.16715 1.29097 7.18491 
-1.4427 1.22579 7.16602 1.51234 1.15168 7.16211 4.22359 1.16891 7.02346 
7.37369 1.4946 6.94843 9.79137 1.38431 6.99575 -9.87441 1.33244 9.92711 
-6.97223 1.28991 9.92501 -4.15178 1.08818 9.90309 -1.49326 1.2092 9.88034 
1.42219 1.24221 9.84679 4.24354 1.21217 9.79999 7.09924 1.24293 9.83379 
9.85137 1.31416 9.76231 
CELL_DATA 49
FIELD FieldData 1
zonal 1 49 float
2.99023 3.28852 4.09229 3.5464 3.17232 2.91537 2.72568 4.9477 4.33844 
4.11095 3.64261 3.42525 3.30574 3.14166 2.86153 4.2062 3.61159 3.27607 
3.34643 4.11383 4.35255 3.00715 3.23019 3.19191 2.76836 3.41072 4.32361 
5.29745 2.54368 2.19466 2.79341 3.17281 3.55641 3.88547 3.88963 2.51412 
2.14803 3.00056 3.42226 3.67648 3.62514 2.46947 2.66777 2.84832 3.52497 
3.62591 3.83718 4.35788 4.46506 
POINT_DATA 64
SCALARS nodal float
LOOKUP_TABLE default
3.60063 3.0714 3.92301 3.84624 3.80009 3.77227 3.77063 3.78281 3.74025 
3.38749 3.80726 3.78842 4.01676 3.98557 3.89703 3.88841 3.64097 3.53141 
3.53932 3.88276 3.64266 4.74808 4.13187 4.03453 4.22101 3.67292 3.46319 
3.67755 3.80772 4.00651 4.28102 4.10352 3.40143 3.31059 3.38113 3.52996 
3.69402 3.87104 4.09238 3.98323 3.312 3.22931 3.42383 3.49668 3.61044 
3.77628 4.56842 3.9425 3.40658 3.40372 3.50537 3.54385 3.49004 3.70462 
2.86029 3.8486 3.50355 3.54943 3.71133 3.65769 3.66965 3.71889 3.71861 
3.78777 
