# vtk DataFile Version 3.0
vtk output
ASCII
DATASET STRUCTURED_GRID
DIMENSIONS 8 8 1
POINTS 64 float
-9.80676 -9.51914 1.29618 -7.39099 -9.49367 1.29559 -4.30237 -9.56052 0.858225 
-1.45371 -10.3937 0.782454 1.63229 -9.83456 1.21178 4.43282 -9.93587 1.20966 
7.11798 -9.79967 1.05872 9.83912 -9.809 1.24155 -8.76679 -7.25037 0.888019 
-7.74945 -7.24455 1.10599 -4.42865 -8.21959 1.49754 -1.62854 -6.6352 1.23111 
1.52043 -6.7993 1.27874 4.393 -6.79888 1.32564 7.23392 -6.66536 1.2796 
9.67725 -6.88233 1.29686 -9.954 -4.68008 1.2048 -7.37757 -4.93226 1.16114 
-4.07603 -4.62878 1.45698 -1.33456 -4.39419 1.45492 1.52761 -4.28418 1.30783 
4.41591 -4.16856 1.24628 7.54988 -4.61358 1.58936 9.37077 -4.41454 1.50572 
-10.1787 -1.35637 1.26943 -7.13336 -1.06078 0.964768 -4.02554 -1.26004 1.29513 
-1.32463 -1.29929 1.47762 1.63534 -1.34788 1.39811 4.41103 -1.31627 1.16062 
7.05831 -1.29545 0.875453 9.67068 -1.22786 1.25899 -9.88137 1.55454 1.06309 
-7.17232 1.5996 1.1392 -4.18951 1.51308 1.32626 -1.29994 1.5043 1.28914 
1.59247 1.49833 1.25008 4.51628 1.5156 1.18622 7.14309 1.59534 1.4052 
9.514 1.48791 1.29637 -9.89549 4.18755 1.2196 -7.17452 4.18479 1.31197 
-4.23635 4.06966 1.53359 -1.20937 4.19029 1.29332 1.51352 4.27262 1.12016 
4.54678 4.37951 1.18068 6.87761 3.73427 1.09192 9.70517 3.8774 1.34747 
-9.89946 7.07225 1.33633 -7.17036 7.13963 1.35278 -4.31764 7.23433 1.67459 
-1.10945 7.11156 1.3397 1.74299 7.03526 1.18541 4.35201 6.55014 2.32454 
6.64876 6.69324 0.74691 10.0931 6.99568 1.42658 -9.88711 9.89945 1.34431 
-7.08354 9.88383 1.2792 -4.27112 9.96635 1.32975 -1.30917 9.86123 1.29269 
1.50586 9.69905 1.27423 4.10949 9.56734 1.28189 6.95076 9.99565 1.17357 
9.95368 9.93516 1.28816 
CELL_DATA 49
FIELD FieldData 1
zonal 1 49 float
2.93286 2.94926 2.6796 2.47013 2.81913 3.10692 3.44213 3.55468 3.50299 
3.15464 3.13377 3.32518 3.00976 3.60601 3.32961 3.3109 2.84739 2.58455 
3.92266 3.91791 4.23998 3.00715 3.23019 3.19191 2.76836 3.41072 4.32361 
5.29745 4.35216 3.60468 3.25119 3.71761 3.96785 4.57609 5.00485 3.20481 
3.0136 2.63734 3.67984 4.28964 4.56979 4.88835 2.74308 2.9156 2.23087 
3.53692 4.29173 4.09175 3.26901 
POINT_DATA 64
SCALARS nodal float
LOOKUP_TABLE default
3.7098 3.46036 2.54554 2.16111 3.1213 3.14766 3.4543 3.54554 4.27934 
3.80967 4.1525 3.14107 3.3094 3.32723 3.67141 3.7246 3.27539 3.06474 
3.18123 3.33364 3.50954 3.64818 4.12404 3.85019 3.00477 2.79585 3.15936 
3.38942 3.57286 3.75936 3.89817 3.83568 3.44397 3.34127 3.39176 3.54004 
3.70224 3.87968 4.10577 3.9926 3.50176 3.41504 3.35586 3.54914 3.78006 
3.95018 4.02048 3.8297 3.46695 3.36466 3.15978 3.50775 3.86734 4.55308 
3.34139 3.48656 3.48366 3.4322 3.41862 3.56983 3.75622 3.81282 3.57887 
3.63372 
