# vtk DataFile Version 3.0
vtk output
ASCII
DATASET STRUCTURED_GRID
DIMENSIONS 1 4 1
POINTS 4 float
3.2 0 2.2
3.1 1 2.4
3.4 4 2.5
3.1 6 2.3
CELL_DATA 3
FIELD FieldData 1
zonal 1 3 float
0 1 2 
POINT_DATA 4
FIELD FieldData 1
nodal 1 4 float
0 1 1.1 2 
