# vtk DataFile Version 3.0
vtk output
ASCII
DATASET STRUCTURED_GRID
DIMENSIONS 6 6 6
POINTS 216 float
-9.95073 -9.89087 -9.91604 -5.85806 -9.85306 -9.94383 -1.85611 -9.8588 -9.90685 
2.23307 -9.90105 -9.94491 6.32063 -9.88056 -9.89571 9.93689 -9.89096 -9.89179 
-9.89598 -5.77789 -9.84548 -5.86373 -5.73659 -9.81649 -1.89624 -5.76075 -9.80651 
2.20234 -5.80137 -9.93045 6.33366 -5.8511 -9.80825 9.89191 -5.87174 -9.81639 
-9.8436 -1.80904 -9.62199 -5.62706 -1.63796 -9.56475 -1.98838 -1.57672 -9.75775 
2.13401 -1.6826 -9.84257 6.25783 -1.76492 -9.83884 9.89741 -1.80312 -9.85698 
-9.94225 2.15405 -9.87009 -4.97862 3.37405 -8.9938 -1.942 2.02613 -9.7595 
2.14293 2.16018 -9.6941 6.22881 2.21221 -9.75306 9.88505 2.24879 -9.80599 
-9.85179 6.37362 -9.95761 -5.69694 6.35077 -9.91276 -2.1463 6.33266 -9.89087 
2.3761 5.96289 -9.97367 6.28425 6.27268 -9.8187 9.90651 6.25541 -9.80875 
-9.65555 9.92297 -9.85981 -6.07522 9.79571 -9.73041 -2.16723 9.64398 -9.92058 
2.27348 10.069 -9.97054 6.30394 9.8835 -9.85575 9.92663 9.89892 -9.88461 
-9.92795 -9.84989 -5.82679 -5.88297 -9.80364 -5.83785 -1.95052 -9.74718 -5.88878 
2.366 -10.1069 -5.91413 6.29751 -9.84551 -5.87544 9.93203 -9.77065 -5.83454 
-9.84276 -5.69664 -5.8159 -5.84083 -5.70445 -5.88 -2.5447 -6.34618 -5.36293 
2.17702 -5.87224 -6.07982 6.61931 -5.75762 -5.3906 9.58626 -5.99217 -5.73606 
-9.07867 -1.20602 -6.71163 -6.26973 -1.64927 -5.92237 -1.99021 -1.71094 -6.0596 
2.27099 -1.47929 -5.90891 6.51096 -1.34858 -5.66943 9.89294 -1.69832 -5.87756 
-9.96564 1.98206 -5.80325 -5.39159 2.49468 -6.13602 -1.72366 2.11947 -5.78472 
2.25497 2.25217 -5.92371 6.08986 2.26527 -5.4426 9.69709 2.38142 -5.61957 
-9.95456 6.32139 -5.85461 -5.76754 6.46235 -6.0935 -1.78137 6.33578 -5.75613 
2.48201 5.95652 -5.5678 6.17983 6.11607 -5.50187 9.56553 6.01095 -5.47442 
-9.84058 9.93246 -5.97752 -5.86005 9.90454 -6.09315 -1.9091 9.77787 -5.83246 
2.2798 9.81404 -5.69017 6.26771 9.70945 -5.79111 9.8684 9.77824 -5.83035 
-9.88265 -9.72945 -1.67668 -6.00223 -9.74233 -1.76494 -1.88594 -9.79922 -1.9073 
2.72668 -9.57021 -2.01438 6.48666 -9.96173 -1.39745 9.79394 -9.79539 -1.79481 
-9.74459 -5.94622 -1.64211 -6.17619 -6.04547 -1.79715 -1.58799 -5.89471 -1.90428 
1.8549 -5.53004 -1.57553 6.79046 -5.13824 -2.27509 9.4522 -5.96401 -1.91866 
-9.62506 -1.99242 -2.17054 -5.93622 -1.75371 -2.63419 -2.36979 -1.2931 -2.00089 
2.67679 -1.68781 -1.74583 6.91138 -1.48172 -2.20564 9.29745 -0.5652 -1.96361 
-8.56588 1.76239 -1.96339 -6.17416 2.04153 -1.82426 -1.38424 2.42742 -2.27416 
2.44099 2.43099 -1.86132 6.51837 2.40944 -1.71011 9.42171 2.22067 -1.84222 
-9.91629 6.17563 -1.80662 -6.19514 6.32378 -1.77757 -1.20549 6.2948 -1.96991 
2.57866 6.36563 -1.41547 6.11845 5.857 -2.03975 9.79359 5.97674 -2.38868 
-9.85775 9.90267 -1.81502 -6.12201 9.64488 -1.54548 -1.67867 9.7604 -1.87764 
2.24048 9.61663 -1.78567 6.17329 9.72268 -1.88234 9.87495 9.83731 -1.9164 
-9.82598 -9.59696 2.14554 -6.46457 -9.56459 2.31788 -2.25318 -10.4192 2.46716 
2.35917 -9.82597 2.19416 6.36983 -9.80832 2.02719 9.87767 -9.81373 2.13949 
-9.668 -6.34638 1.89816 -5.88257 -6.42047 2.11425 -1.94676 -5.81141 2.25874 
2.29239 -5.68038 2.31596 6.76988 -5.49097 2.07738 9.39502 -5.65676 2.16068 
-10.2068 -1.8483 2.19471 -5.35254 -1.52822 1.95342 -1.69208 -1.79341 2.37812 
2.36526 -1.79474 2.26993 6.24981 -1.75796 1.71913 9.79189 -1.78571 2.11551 
-9.91574 2.29269 2.08958 -5.82938 2.33762 2.25385 -1.75152 2.2591 2.23815 
2.41211 2.24214 2.13748 6.63479 2.13234 2.30771 9.45488 2.17309 2.27559 
-9.90182 6.27458 2.25164 -5.94875 6.26659 2.37928 -1.62683 6.25805 2.32491 
2.68397 6.56891 2.1688 5.10079 5.43168 1.80228 10.0037 6.00578 2.40484 
-9.89404 9.89634 2.27624 -5.90583 9.91549 2.24257 -1.74304 9.88158 2.23226 
2.29329 9.65035 2.17842 6.02786 10.0355 2.10701 9.97551 9.93192 2.22595 
-9.80942 -9.76602 6.2843 -6.19918 -9.57674 6.59057 -2.15023 -9.7636 6.28725 
2.57772 -9.67006 6.11572 6.28662 -9.88479 6.30586 9.95909 -9.87514 6.25359 
-9.62056 -6.03174 6.63446 -6.04855 -6.15553 6.27794 -1.86876 -5.64664 6.28381 
1.69242 -5.49123 5.78234 6.13422 -5.62642 6.27778 9.87004 -5.76656 6.2038 
-9.977 -1.91115 6.39405 -5.66965 -1.69834 6.51834 -1.8873 -1.97213 6.47472 
2.52648 -2.07201 6.52995 6.37902 -2.46995 7.9078 9.70533 -1.67838 6.45889 
-9.89082 2.29961 6.31073 -5.75877 2.31186 6.30852 -1.8531 2.13547 6.36375 
2.44001 2.20087 6.23572 6.26893 2.55354 5.80548 9.7318 2.47872 6.15173 
-9.74485 6.54128 6.46264 -5.92987 6.34505 6.38243 -1.80878 6.35859 6.50555 
2.35509 6.27802 6.10742 6.33516 6.00816 6.25034 9.58681 5.66189 6.31938 
-9.72799 9.64519 6.49435 -6.01317 9.7929 6.36317 -1.81521 9.78345 6.33794 
2.2199 9.77039 6.2251 6.21228 9.8185 6.31523 9.92482 9.82268 6.31836 
-9.88364 -9.8083 9.84026 -5.97583 -9.82713 9.76726 -1.95961 -9.8344 9.99279 
2.29006 -9.8134 10.0487 6.29878 -9.87445 9.93497 9.95131 -9.90474 9.93366 
-9.69252 -5.94328 9.52263 -6.06419 -5.9675 9.88723 -1.83673 -5.6977 9.84758 
2.2392 -5.61677 9.7151 6.29951 -5.92557 9.81696 9.91201 -5.79254 9.88089 
-9.8747 -1.8988 9.91936 -5.3345 -1.64332 10.0497 -2.24139 -1.75693 9.82637 
2.37225 -1.92789 9.57519 6.1696 -1.76916 9.48488 9.78071 -1.7381 9.7487 
-9.87634 2.2593 9.91858 -5.78148 2.16924 9.90297 -1.85727 2.15421 9.88426 
2.2301 2.16843 9.84912 6.28439 2.19567 9.85476 9.86948 2.23571 9.75714 
-9.82403 6.4232 9.74691 -5.91013 6.27933 9.81029 -1.83437 6.55947 9.38762 
2.16832 6.25502 9.8276 6.30487 6.20727 9.78585 9.87776 6.18776 9.75459 
-9.83585 9.7923 9.73107 -5.99368 9.89311 9.82641 -1.81689 9.71582 9.84149 
2.1858 9.84813 9.87633 6.27089 9.86173 9.89472 9.92343 9.87219 9.91169 

CELL_DATA 125
FIELD FieldData 1
zonal 1 125 float
2.12651 2.23655 2.30367 2.20607 2.21764 2.5701 2.83811 2.83385 2.56669 
2.58123 2.9952 3.6365 3.50407 3.02973 2.75556 2.60431 3.83212 3.56315 
3.23267 2.88204 2.54381 3.21552 3.09381 2.46411 2.64058 2.43069 2.59354 
2.53826 2.23287 2.47354 3.04179 3.3009 4.04014 2.30504 3.68887 4.43951 
4.08235 3.51686 3.34099 3.29878 2.9986 2.85097 3.77168 5.26789 4.15468 
2.61024 2.86093 3.45753 3.74969 3.88816 2.86858 2.81056 2.51608 3.17557 
3.28922 3.3918 3.09088 3.26012 3.55715 4.09958 3.1483 3.32668 2.63275 
3.60394 5.24058 4.43157 3.21174 3.89719 4.22944 5.15507 2.8052 2.50196 
3.26784 4.80629 3.89226 3.07507 2.62261 1.41266 2.42695 2.68063 3.4088 
3.30338 3.16153 3.40102 3.91584 2.48099 2.1514 3.18874 3.64967 3.55606 
2.86856 3.09604 3.35993 3.78059 4.62471 2.79394 2.90045 3.17416 4.04349 
2.90791 2.83496 3.64593 2.20986 2.09402 2.25209 3.43994 3.07866 3.29498 
4.11988 3.07583 2.65355 2.87837 3.62634 4.07384 4.95254 2.72514 3.15544 
3.26907 3.39811 3.43305 3.18848 3.2106 3.40977 3.4471 3.35531 
POINT_DATA 216
SCALARS nodal float
LOOKUP_TABLE default
3.34106 2.67142 3.40238 3.42803 3.49367 3.55326 3.5712 3.52902 3.5516 
3.49784 3.57552 3.63243 3.74548 3.83756 3.77584 3.68396 3.69018 3.71999 
3.54929 3.58181 3.78904 3.7772 3.76603 3.79452 3.4788 3.5803 3.58576 
3.3256 3.6737 3.7957 3.6342 3.68886 3.55048 3.33476 3.66467 3.75031 
3.44965 3.32869 3.3405 3.14923 3.30598 3.47975 3.61525 3.50107 4.16178 
2.99915 3.69222 3.68172 4.38268 3.77385 3.61525 3.61967 3.52677 3.7667 
3.59778 3.36151 3.75374 5.16403 4.02101 4.00141 3.39963 3.33592 3.58924 
3.77718 3.93936 4.20066 3.50142 3.45363 3.53789 3.58485 3.79064 3.84729 
3.59456 3.3944 3.23424 3.41838 3.47592 3.54805 3.67177 3.32907 3.3525 
3.46289 3.79157 3.78322 3.44653 3.24891 3.1685 3.57755 4.31602 3.66439 
4.4337 3.49655 3.79041 3.92396 4.30383 4.11864 3.47838 3.1397 3.41245 
4.47625 3.99156 3.7694 3.4402 3.31108 3.53994 3.79243 3.79804 3.75636 
3.67154 3.09232 2.08807 3.1554 3.34828 3.52429 3.66269 3.36978 3.32536 
3.47163 3.80183 3.86471 3.002 2.53957 3.38281 3.6246 3.74894 3.80208 
3.41325 3.37391 3.51726 3.74619 4.07165 3.9941 3.46973 3.35235 3.49032 
3.90205 3.52657 3.61363 3.50437 3.44578 3.55705 3.79323 3.55246 3.62214 
3.58249 3.80254 3.02907 2.81949 3.18982 3.44005 3.70675 3.36777 3.4701 
4.16383 3.53119 3.60863 3.26886 3.13084 3.56813 3.83491 4.79508 3.77315 
3.41367 3.44341 3.46672 3.48552 3.61468 3.93108 3.65757 3.44791 3.60622 
3.79925 3.84666 4.13788 3.80057 3.58331 3.62273 3.73814 3.69752 3.72797 
3.5941 3.50958 3.2465 3.17802 3.40885 3.49841 3.79963 3.48015 3.49767 
3.58781 3.20085 3.57666 3.50418 3.71451 3.81108 3.82383 3.74843 3.74749 
3.51615 3.57583 3.63426 3.67311 3.71113 3.80141 3.68517 3.46156 3.85518 
3.70901 3.78188 3.85194 3.74998 3.38862 3.6154 3.69689 3.72971 3.75157 

