# vtk DataFile Version 3.0
vtk output
ASCII
DATASET POLYDATA
FIELD FieldData 3
group_id 1 1 int
0 
base_index 1 3 int
0 0 0 
avtOriginalBounds 1 6 double
-10 10 -10 10 -10 10 
POINTS 104 float
-1.42857 -1.42857 -4.28571 1.42857 -1.42857 -4.28571 -1.42857 1.42857 -4.28571 
1.42857 1.42857 -4.28571 -1.42857 -4.28571 -1.42857 1.42857 -4.28571 -1.42857 
-4.28571 -1.42857 -1.42857 -1.42857 -1.42857 -1.42857 4.28572 -1.42857 -1.42857 
1.42857 -1.42857 -1.42857 -4.28571 1.42857 -1.42857 -1.42857 4.28572 -1.42857 
-1.42857 1.42857 -1.42857 1.42857 4.28572 -1.42857 1.42857 1.42857 -1.42857 
4.28572 1.42857 -1.42857 -1.42857 -4.28571 1.42857 1.42857 -4.28571 1.42857 
-4.28571 -1.42857 1.42857 -1.42857 -1.42857 4.28572 -1.42857 -1.42857 1.42857 
1.42857 -1.42857 4.28572 1.42857 -1.42857 1.42857 4.28572 -1.42857 1.42857 
-4.28571 1.42857 1.42857 -1.42857 4.28572 1.42857 -1.42857 1.42857 1.42857 
-1.42857 1.42857 4.28572 1.42857 4.28572 1.42857 1.42857 1.42857 1.42857 
4.28572 1.42857 1.42857 1.42857 1.42857 4.28572 -1.42857 -3.8 -4.28571 
-1.42857 -1.42857 -5.47143 -3.8 -1.42857 -4.28571 1.42857 -1.42857 -5.47143 
1.42857 -3.8 -4.28571 3.8 -1.42857 -4.28571 -3.8 1.42857 -4.28571 
-1.42857 1.42857 -5.47143 1.42857 1.42857 -5.47143 3.8 1.42857 -4.28571 
-1.42857 3.8 -4.28571 1.42857 3.8 -4.28571 -1.42857 -5.47143 -1.42857 
-1.42857 -4.28571 -3.8 -3.8 -4.28571 -1.42857 1.42857 -4.28571 -3.8 
1.42857 -5.47143 -1.42857 3.8 -4.28571 -1.42857 -4.28571 -3.8 -1.42857 
-4.28571 -1.42857 -3.8 -5.47143 -1.42857 -1.42857 4.28572 -3.8 -1.42857 
4.28572 -1.42857 -3.8 5.47143 -1.42857 -1.42857 -5.47143 1.42857 -1.42857 
-4.28571 1.42857 -3.8 4.28572 1.42857 -3.8 5.47143 1.42857 -1.42857 
-4.28571 3.8 -1.42857 -1.42857 4.28572 -3.8 -3.8 4.28572 -1.42857 
1.42857 4.28572 -3.8 4.28572 3.8 -1.42857 3.8 4.28572 -1.42857 
-1.42857 5.47143 -1.42857 1.42857 5.47143 -1.42857 -3.8 -4.28571 1.42857 
-1.42857 -5.47143 1.42857 1.42857 -5.47143 1.42857 3.8 -4.28571 1.42857 
-5.47143 -1.42857 1.42857 -4.28571 -3.8 1.42857 4.28572 -3.8 1.42857 
5.47143 -1.42857 1.42857 -5.47143 1.42857 1.42857 5.47143 1.42857 1.42857 
-4.28571 3.8 1.42857 -3.8 4.28572 1.42857 3.8 4.28572 1.42857 
4.28572 3.8 1.42857 -1.42857 5.47143 1.42857 1.42857 5.47143 1.42857 
-1.42857 -4.28571 3.8 1.42857 -4.28571 3.8 -4.28571 -1.42857 3.8 
-1.42857 -3.8 4.28572 -3.8 -1.42857 4.28572 1.42857 -3.8 4.28572 
4.28572 -1.42857 3.8 3.8 -1.42857 4.28572 -4.28571 1.42857 3.8 
-3.8 1.42857 4.28572 4.28572 1.42857 3.8 3.8 1.42857 4.28572 
-1.42857 3.8 4.28572 -1.42857 4.28572 3.8 1.42857 3.8 4.28572 
1.42857 4.28572 3.8 -1.42857 -1.42857 5.47143 1.42857 -1.42857 5.47143 
-1.42857 1.42857 5.47143 1.42857 1.42857 5.47143 
POLYGONS 90 410
3 34 33 32 
3 32 45 46 
4 50 34 32 46 
4 33 35 36 32 
4 36 47 45 32 
4 34 38 39 33 
4 33 39 40 35 
3 50 51 34 
4 57 38 34 51 
3 35 37 36 
4 35 40 41 37 
3 37 47 36 
4 37 54 49 47 
4 41 58 54 37 
3 38 42 39 
3 38 57 60 
4 60 62 42 38 
4 40 39 42 43 
3 41 40 43 
3 43 58 41 
3 61 42 62 
4 63 43 42 61 
4 43 63 64 58 
3 46 45 44 
4 45 47 48 44 
4 68 46 44 69 
4 44 48 70 69 
4 68 73 50 46 
3 47 49 48 
4 70 48 49 71 
3 53 49 54 
4 74 71 49 53 
3 52 51 50 
4 72 52 50 73 
4 52 56 57 51 
4 52 72 76 56 
3 55 53 54 
4 74 53 55 75 
4 54 58 59 55 
4 55 59 77 75 
3 56 60 57 
4 56 76 78 60 
3 59 58 64 
4 77 59 64 81 
4 78 79 62 60 
3 66 61 62 
4 63 61 66 67 
4 62 79 82 66 
3 65 63 67 
3 65 64 63 
4 80 81 64 65 
4 80 65 67 83 
4 66 82 83 67 
3 69 84 68 
3 73 68 86 
4 86 68 84 88 
4 69 70 85 84 
3 70 71 85 
3 71 74 85 
3 73 86 72 
4 76 72 86 92 
3 74 75 90 
4 85 74 90 89 
4 75 77 94 90 
3 76 92 78 
3 81 94 77 
3 93 78 92 
4 78 93 96 79 
3 79 97 82 
3 97 79 96 
3 83 99 80 
3 99 98 80 
4 81 80 98 95 
3 95 94 81 
4 97 99 83 82 
3 84 87 88 
4 85 89 87 84 
4 93 92 86 88 
3 100 88 87 
4 87 89 101 100 
4 93 88 100 102 
3 89 91 101 
3 91 89 90 
4 94 95 91 90 
4 91 95 103 101 
3 93 102 96 
3 98 103 95 
4 102 103 98 96 
4 98 99 97 96 
4 100 101 103 102 

CELL_DATA 90
FIELD FieldData 1
zonal 1 90 float
3.56613 3.36329 3.36329 3.35377 3.20132 4.11095 3.64261 3.36329 3.61159 
2.80571 3.42525 2.30731 2.30731 3.34643 3.86304 3.33105 3.33105 3.77332 
4.33463 3.1308 3.33105 4.21548 3.1308 3.13634 3.26446 3.15464 3.13377 
2.84739 2.12359 3.32518 2.30731 3.92266 3.80952 3.3109 4.2062 3.23019 
3.60694 3.91791 4.11383 4.32361 3.22385 3.60468 5.27301 4.57609 3.25119 
1.67185 4.18059 2.63734 4.44287 3.1308 3.96785 4.28964 3.67984 4.24137 
2.85161 2.85161 2.87118 3.06001 3.48445 2.54785 2.19466 3.7021 3.48445 
3.88547 2.99338 4.19433 3.14247 3.14247 2.99125 3.14247 3.69615 3.72927 
3.72927 3.72927 3.35302 2.85161 3.13767 2.79341 3.14625 3.4478 3.00056 
3.86101 3.48445 3.55641 3.67648 3.32322 3.53237 3.34054 3.39691 3.42226 

POINT_DATA 104
SCALARS nodal float
LOOKUP_TABLE default
3.51926 3.60442 3.89548 3.644 3.11058 3.83538 3.2775 3.21389 3.87295 
3.50135 3.46969 3.67802 3.69377 3.92713 3.81844 4.01118 3.34144 3.49814 
3.15523 3.48267 3.39556 3.63378 3.57536 3.75538 3.38903 3.54463 3.53466 
3.49717 3.77491 3.69817 3.87508 3.60962 3.44712 3.59786 3.53308 3.64167 
2.96522 3.76681 3.59996 3.85221 3.80338 4.58791 3.86211 3.96582 3.19797 
3.37764 3.12432 3.00449 3.63989 3.69824 3.1527 3.49199 3.3189 3.70462 
3.81246 4.13389 3.55832 3.52758 4.65033 4.11996 3.27633 3.82514 3.31174 
4.01395 4.05295 4.03866 3.63066 4.00547 3.21004 3.25567 3.41901 3.62203 
2.99765 3.17838 3.66577 3.80588 3.36425 3.96839 3.36496 3.39141 3.91715 
3.93418 3.52851 3.80966 3.44518 3.65762 3.14984 3.46919 3.20551 3.68068 
3.69148 3.67081 3.4259 3.44429 3.79592 3.75079 3.41368 3.42175 3.67909 
3.70719 3.5336 3.6851 3.51565 3.55611 
