# vtk DataFile Version 3.0
vtk output
ASCII
DATASET POLYDATA
FIELD FieldData 1
avtOriginalBounds 1 6 double
5.3859 18.3279 5.23539 13.1614 4.8045 17.8685 
POINTS 57 float
12.5609 10.8984 14.6205 11.5709 11.2564 13.5385 10.3349 10.4164 13.5985 
12.1819 8.68939 11.6995 11.2449 9.16839 9.1085 10.8989 9.21239 11.5115 
10.4389 9.44539 10.2045 10.0229 9.49939 12.6565 9.4759 10.6974 14.7575 
9.3669 9.77739 15.8085 8.8269 7.32039 12.5855 8.7869 11.9164 14.8385 
8.7789 8.71839 12.6805 8.5779 10.0714 16.9195 7.9979 12.2044 15.9495 
7.8919 11.2834 16.9925 7.6509 6.57339 12.5915 7.5329 9.35439 12.7735 
6.4149 7.21339 12.6825 6.3589 8.60339 12.7725 12.5349 8.64139 9.3155 
13.0039 8.39939 10.6115 14.5709 7.87339 8.3435 15.1269 7.73439 6.9175 
16.5899 5.81339 7.0905 17.2709 7.73039 5.7985 16.4979 7.24539 6.9205 
13.2489 8.39939 8.1605 12.0819 10.9544 15.6275 12.0639 11.1524 12.5335 
11.2689 12.3334 13.6525 10.8939 9.35139 8.0835 9.9029 8.81839 15.7515 
9.8019 6.81539 12.5035 9.4269 9.85039 10.0495 8.8719 12.6444 14.0185 
8.4959 9.34339 17.7395 7.6989 5.47739 12.5205 7.4899 10.4504 12.8595 
7.4589 13.1614 16.0035 7.2689 11.5134 17.8685 5.4869 6.62239 12.6845 
5.3859 9.11239 12.8445 12.5499 8.50539 12.7205 12.9489 9.86139 14.4735 
13.4249 11.6054 14.5955 14.0069 7.98739 10.7855 14.4359 7.06039 6.3325 
14.5089 6.88239 8.8635 15.0909 8.75239 6.4355 15.1819 8.58839 8.9525 
16.0329 5.51839 8.0175 16.1669 5.23539 6.2225 16.8789 7.38039 4.8045 
17.2679 8.85139 5.8095 17.6689 5.53239 7.2135 18.3279 7.37239 5.9105 

VERTICES 57 114
1 0 
1 1 
1 2 
1 3 
1 4 
1 5 
1 6 
1 7 
1 8 
1 9 
1 10 
1 11 
1 12 
1 13 
1 14 
1 15 
1 16 
1 17 
1 18 
1 19 
1 20 
1 21 
1 22 
1 23 
1 24 
1 25 
1 26 
1 27 
1 28 
1 29 
1 30 
1 31 
1 32 
1 33 
1 34 
1 35 
1 36 
1 37 
1 38 
1 39 
1 40 
1 41 
1 42 
1 43 
1 44 
1 45 
1 46 
1 47 
1 48 
1 49 
1 50 
1 51 
1 52 
1 53 
1 54 
1 55 
1 56 

LINES 59 177
2 18 41 
2 18 19 
2 19 42 
2 16 18 
2 16 37 
2 10 16 
2 10 12 
2 10 33 
2 12 17 
2 17 19 
2 17 38 
2 13 36 
2 13 15 
2 11 35 
2 11 14 
2 14 15 
2 14 39 
2 15 40 
2 6 34 
2 5 6 
2 5 7 
2 2 7 
2 2 8 
2 7 12 
2 8 11 
2 8 9 
2 9 13 
2 9 32 
2 20 27 
2 20 21 
2 3 5 
2 3 43 
2 3 21 
2 4 31 
2 4 6 
2 4 20 
2 0 44 
2 0 1 
2 0 28 
2 0 45 
2 1 2 
2 1 29 
2 1 30 
2 22 48 
2 22 27 
2 22 23 
2 22 50 
2 21 46 
2 24 52 
2 24 51 
2 24 26 
2 24 55 
2 23 47 
2 23 49 
2 23 26 
2 25 26 
2 25 53 
2 25 54 
2 25 56 

CELL_DATA 116
SCALARS id float
LOOKUP_TABLE default
0 1 2 3 4 5 6 7 8 
9 10 11 12 13 14 15 16 17 
18 19 20 21 22 23 24 25 26 
27 28 29 30 31 32 33 34 35 
36 37 38 39 40 41 42 43 44 
45 46 47 48 49 50 51 52 53 
54 55 56 101 102 103 104 105 106 
107 108 109 110 111 112 113 114 115 
116 117 118 119 120 121 122 123 124 
125 126 127 128 129 130 131 132 133 
134 135 136 137 138 139 140 141 142 
143 144 145 146 147 148 149 150 151 
152 153 154 155 156 157 158 159 
POINT_DATA 57
FIELD FieldData 1
element 1 57 float
6 6 6 6 6 6 6 6 6 
6 6 6 6 6 6 6 6 6 
6 6 6 6 6 6 6 6 7 
8 1 1 1 1 1 1 1 1 
1 1 1 1 1 1 1 1 1 
1 1 1 1 1 1 1 1 1 
1 1 1 
