# vtk DataFile Version 3.0
vtk output
ASCII
DATASET RECTILINEAR_GRID
FIELD FieldData 3
group_id 1 1 int
0 
base_index 1 3 int
0 0 0 
avtOriginalBounds 1 6 double
-10 10 -10 10 -10 10 
DIMENSIONS 1 8 8
X_COORDINATES 1 float
1.332 
Y_COORDINATES 8 float
-10 -7.14286 -4.28571 -1.42857 1.42857 4.28572 7.14286 10 
Z_COORDINATES 8 float
-10 -7.14286 -4.28571 -1.42857 1.42857 4.28572 7.14286 10 
CELL_DATA 49
SCALARS zonal float
LOOKUP_TABLE default
2.29363 2.65214 3.01935 3.5464 3.70934 3.19218 2.93179 2.46183 3.22544 
3.35377 3.64261 3.77332 3.42347 3.14842 2.49288 3.26446 3.20132 3.27607 
4.21548 4.18059 3.56495 2.47013 3.13377 2.58455 2.76836 3.71761 3.67984 
3.53692 1.3736 2.87118 3.13767 3.17281 3.39691 3.35302 3.19654 2.14197 
3.0191 3.4478 3.42226 3.34054 3.21616 3.2264 2.04518 2.94998 3.39323 
3.62591 3.34755 3.32206 3.55842 
POINT_DATA 64
FIELD FieldData 1
nodal 1 64 float
3.42189 3.4667 3.56669 3.72235 3.80443 3.65427 2.95209 3.30242 3.25356 
3.24184 3.38496 3.69467 4.02004 3.82223 3.19815 3.3927 3.01651 2.42253 
2.85452 3.60154 3.6525 4.02577 3.7858 3.66485 3.28854 3.36287 3.81088 
3.49163 3.81422 3.91871 4.09723 3.75102 3.08186 3.30164 3.49284 3.56928 
3.69264 3.76713 3.84671 3.74988 3.08513 3.54922 3.68271 3.62867 3.60582 
3.68328 3.79978 3.7332 1.92625 3.56135 3.80001 3.75231 3.48274 3.62329 
3.74084 3.70981 3.10804 3.44312 3.69466 3.74858 3.66647 3.67055 3.72268 
3.68869 
