# vtk DataFile Version 3.0
vtk output
ASCII
DATASET RECTILINEAR_GRID
FIELD FieldData 3
group_id 1 1 int
0 
base_index 1 3 int
0 0 0 
avtOriginalBounds 1 6 double
-10 10 -10 10 -10 10 
DIMENSIONS 8 1 8
X_COORDINATES 8 float
-10 -7.14286 -4.28571 -1.42857 1.42857 4.28572 7.14286 10 
Y_COORDINATES 1 float
1.332 
Z_COORDINATES 8 float
-10 -7.14286 -4.28571 -1.42857 1.42857 4.28572 7.14286 10 
CELL_DATA 49
SCALARS zonal float
LOOKUP_TABLE default
2.99023 3.28852 4.09229 3.5464 3.17232 2.91537 2.72568 4.9477 4.33844 
4.11095 3.64261 3.42525 3.30574 3.14166 2.86153 4.2062 3.61159 3.27607 
3.34643 4.11383 4.35255 3.00715 3.23019 3.19191 2.76836 3.41072 4.32361 
5.29745 2.54368 2.19466 2.79341 3.17281 3.55641 3.88547 3.88963 2.51412 
2.14803 3.00056 3.42226 3.67648 3.62514 2.46947 2.66777 2.84832 3.52497 
3.62591 3.83718 4.35788 4.46506 
POINT_DATA 64
FIELD FieldData 1
nodal 1 64 float
3.60063 3.0714 3.92301 3.84624 3.80009 3.77227 3.77063 3.78281 3.74025 
3.38749 3.80726 3.78842 4.01676 3.98557 3.89703 3.88841 3.64097 3.53141 
3.53932 3.88276 3.64266 4.74808 4.13187 4.03453 4.22101 3.67292 3.46319 
3.67755 3.80772 4.00651 4.28102 4.10352 3.40143 3.31059 3.38113 3.52996 
3.69402 3.87104 4.09238 3.98323 3.312 3.22931 3.42383 3.49668 3.61044 
3.77628 4.56842 3.9425 3.40658 3.40372 3.50537 3.54385 3.49004 3.70462 
2.86029 3.8486 3.50355 3.54943 3.71133 3.65769 3.66965 3.71889 3.71861 
3.78777 
