# vtk DataFile Version 3.0
vtk output
ASCII
DATASET RECTILINEAR_GRID
DIMENSIONS 1 4 1
X_COORDINATES 1 float
3
Y_COORDINATES 4 float
0 1 4 6
Z_COORDINATES 1 float
2
CELL_DATA 3
FIELD FieldData 1
zonal 1 3 float
0 1 2 
POINT_DATA 4
FIELD FieldData 1
nodal 1 4 float
0 1 1.1 2 
