# vtk DataFile Version 3.0
vtk output
ASCII
DATASET RECTILINEAR_GRID
FIELD FieldData 3
group_id 1 1 int
0 
base_index 1 3 int
0 0 0 
avtOriginalBounds 1 6 double
-10 10 -10 10 -10 10 
DIMENSIONS 6 6 6
X_COORDINATES 6 float
-10 -5.91837 -1.83673 2.2449 6.32653 10 
Y_COORDINATES 6 float
-10 -5.91837 -1.83673 2.2449 6.32653 10 
Z_COORDINATES 6 float
-10 -5.91837 -1.83673 2.2449 6.32653 10 
CELL_DATA 125
FIELD FieldData 1
zonal 1 125 float
2.12651 2.23655 2.30367 2.20607 2.21764 2.5701 2.83811 2.83385 2.56669 
2.58123 2.9952 3.6365 3.50407 3.02973 2.75556 2.60431 3.83212 3.56315 
3.23267 2.88204 2.54381 3.21552 3.09381 2.46411 2.64058 2.43069 2.59354 
2.53826 2.23287 2.47354 3.04179 3.3009 4.04014 2.30504 3.68887 4.43951 
4.08235 3.51686 3.34099 3.29878 2.9986 2.85097 3.77168 5.26789 4.15468 
2.61024 2.86093 3.45753 3.74969 3.88816 2.86858 2.81056 2.51608 3.17557 
3.28922 3.3918 3.09088 3.26012 3.55715 4.09958 3.1483 3.32668 2.63275 
3.60394 5.24058 4.43157 3.21174 3.89719 4.22944 5.15507 2.8052 2.50196 
3.26784 4.80629 3.89226 3.07507 2.62261 1.41266 2.42695 2.68063 3.4088 
3.30338 3.16153 3.40102 3.91584 2.48099 2.1514 3.18874 3.64967 3.55606 
2.86856 3.09604 3.35993 3.78059 4.62471 2.79394 2.90045 3.17416 4.04349 
2.90791 2.83496 3.64593 2.20986 2.09402 2.25209 3.43994 3.07866 3.29498 
4.11988 3.07583 2.65355 2.87837 3.62634 4.07384 4.95254 2.72514 3.15544 
3.26907 3.39811 3.43305 3.18848 3.2106 3.40977 3.4471 3.35531 
POINT_DATA 216
SCALARS nodal float
LOOKUP_TABLE default
3.34106 2.67142 3.40238 3.42803 3.49367 3.55326 3.5712 3.52902 3.5516 
3.49784 3.57552 3.63243 3.74548 3.83756 3.77584 3.68396 3.69018 3.71999 
3.54929 3.58181 3.78904 3.7772 3.76603 3.79452 3.4788 3.5803 3.58576 
3.3256 3.6737 3.7957 3.6342 3.68886 3.55048 3.33476 3.66467 3.75031 
3.44965 3.32869 3.3405 3.14923 3.30598 3.47975 3.61525 3.50107 4.16178 
2.99915 3.69222 3.68172 4.38268 3.77385 3.61525 3.61967 3.52677 3.7667 
3.59778 3.36151 3.75374 5.16403 4.02101 4.00141 3.39963 3.33592 3.58924 
3.77718 3.93936 4.20066 3.50142 3.45363 3.53789 3.58485 3.79064 3.84729 
3.59456 3.3944 3.23424 3.41838 3.47592 3.54805 3.67177 3.32907 3.3525 
3.46289 3.79157 3.78322 3.44653 3.24891 3.1685 3.57755 4.31602 3.66439 
4.4337 3.49655 3.79041 3.92396 4.30383 4.11864 3.47838 3.1397 3.41245 
4.47625 3.99156 3.7694 3.4402 3.31108 3.53994 3.79243 3.79804 3.75636 
3.67154 3.09232 2.08807 3.1554 3.34828 3.52429 3.66269 3.36978 3.32536 
3.47163 3.80183 3.86471 3.002 2.53957 3.38281 3.6246 3.74894 3.80208 
3.41325 3.37391 3.51726 3.74619 4.07165 3.9941 3.46973 3.35235 3.49032 
3.90205 3.52657 3.61363 3.50437 3.44578 3.55705 3.79323 3.55246 3.62214 
3.58249 3.80254 3.02907 2.81949 3.18982 3.44005 3.70675 3.36777 3.4701 
4.16383 3.53119 3.60863 3.26886 3.13084 3.56813 3.83491 4.79508 3.77315 
3.41367 3.44341 3.46672 3.48552 3.61468 3.93108 3.65757 3.44791 3.60622 
3.79925 3.84666 4.13788 3.80057 3.58331 3.62273 3.73814 3.69752 3.72797 
3.5941 3.50958 3.2465 3.17802 3.40885 3.49841 3.79963 3.48015 3.49767 
3.58781 3.20085 3.57666 3.50418 3.71451 3.81108 3.82383 3.74843 3.74749 
3.51615 3.57583 3.63426 3.67311 3.71113 3.80141 3.68517 3.46156 3.85518 
3.70901 3.78188 3.85194 3.74998 3.38862 3.6154 3.69689 3.72971 3.75157 

