# vtk DataFile Version 3.0
vtk output
ASCII
DATASET RECTILINEAR_GRID
FIELD FieldData 3
group_id 1 1 int
0 
base_index 1 3 int
0 0 0 
avtOriginalBounds 1 6 double
-10 10 -10 10 -10 10 
DIMENSIONS 8 8 1
X_COORDINATES 8 float
-10 -7.14286 -4.28571 -1.42857 1.42857 4.28572 7.14286 10 
Y_COORDINATES 8 float
-10 -7.14286 -4.28571 -1.42857 1.42857 4.28572 7.14286 10 
Z_COORDINATES 1 float
1.332 
CELL_DATA 49
FIELD FieldData 1
zonal 1 49 float
2.93286 2.94926 2.6796 2.47013 2.81913 3.10692 3.44213 3.55468 3.50299 
3.15464 3.13377 3.32518 3.00976 3.60601 3.32961 3.3109 2.84739 2.58455 
3.92266 3.91791 4.23998 3.00715 3.23019 3.19191 2.76836 3.41072 4.32361 
5.29745 4.35216 3.60468 3.25119 3.71761 3.96785 4.57609 5.00485 3.20481 
3.0136 2.63734 3.67984 4.28964 4.56979 4.88835 2.74308 2.9156 2.23087 
3.53692 4.29173 4.09175 3.26901 
POINT_DATA 64
SCALARS nodal float
LOOKUP_TABLE default
3.7098 3.46036 2.54554 2.16111 3.1213 3.14766 3.4543 3.54554 4.27934 
3.80967 4.1525 3.14107 3.3094 3.32723 3.67141 3.7246 3.27539 3.06474 
3.18123 3.33364 3.50954 3.64818 4.12404 3.85019 3.00477 2.79585 3.15936 
3.38942 3.57286 3.75936 3.89817 3.83568 3.44397 3.34127 3.39176 3.54004 
3.70224 3.87968 4.10577 3.9926 3.50176 3.41504 3.35586 3.54914 3.78006 
3.95018 4.02048 3.8297 3.46695 3.36466 3.15978 3.50775 3.86734 4.55308 
3.34139 3.48656 3.48366 3.4322 3.41862 3.56983 3.75622 3.81282 3.57887 
3.63372 
