# vtk DataFile Version 3.0
vtk output
ASCII
DATASET UNSTRUCTURED_GRID
POINTS 97 float
-7.65506 -0.308122 -7.96318 -7.55102 -0.284462 -7.83548 -7.80411 -0.204082 -8.0082 
-7.30252 -0.248505 -7.55102 -7.81631 -0.0312613 -7.84758 -7.55102 -0.00158088 -7.5526 
-7.54853 -0.00248771 -7.55102 -7.17808 -0.261981 -7.44006 -6.32653 -0.472396 -6.79893 
-5.88757 -0.438964 -6.32653 -8.17017 0.80459 -7.36558 -7.55102 0.00042486 -7.5506 
-8.00474 1.02041 -6.98433 -7.54955 -0.000975236 -7.55053 -7.95883 1.0658 -6.89303 
-7.89495 1.56842 -6.32653 -5.75984 -0.341882 -6.10172 -5.6814 -0.204082 -5.88548 
-5.75788 0.655839 -5.10204 -7.55102 1.76929 -5.78173 -6.69502 1.59298 -5.10204 
-5.9423 1.02041 -4.9219 -6.46284 1.44267 -5.02017 -6.32653 1.3695 -4.95703 
0.977478 -4.78565 -3.80818 1.02041 -4.86283 -3.84242 0.687042 -4.21092 -3.52388 
0.365341 -3.87755 -3.51221 1.14316 -4.89189 -3.74873 1.22449 -4.95086 -3.72638 
2.24331 -4.89637 -2.65306 -0.300547 -2.74953 -3.05007 -0.204082 -2.96781 -3.17189 
-0.406806 -2.65306 -3.05987 -0.431742 -2.57154 -3.00329 -0.653596 -1.99946 -2.65306 
2.03568 -4.28315 -2.24747 1.9227 -3.87755 -1.95486 1.28159 -2.71017 -1.42857 
-0.213375 -1.42857 -1.64195 -0.216498 -1.43266 -1.64916 -0.496356 -1.86443 -2.36079 
-0.0768446 -1.47261 -1.54946 -0.171646 -1.42857 -1.60022 0 -1.62665 -1.62665 
0.208213 -1.63678 -1.42857 -0.204082 -1.41412 -1.61821 1.24572 -2.65306 -1.40734 
1.02041 -2.35931 -1.3389 8.26199 -6.32653 1.93546 8.36735 -6.39066 1.97669 
8.64065 -6.39575 2.2449 6.98446 -5.10204 1.88242 7.14286 -5.32735 1.8155 
7.24268 -5.41074 1.83194 6.86171 -4.62415 2.23757 6.8565 -4.61161 2.2449 
8.67115 -6.32653 2.34462 8.73938 -5.62688 3.1125 8.7735 -5.30411 3.46939 
8.73949 -5.64226 3.09724 8.6813 -6.02561 2.65568 7.09697 -4.36481 2.73216 
6.82137 -3.87755 2.94382 6.08651 -2.65306 3.43345 6.12245 -2.7863 3.33615 
6.06765 -2.59826 3.46939 8.71043 -5.10204 3.60839 7.9171 -3.92772 3.98938 
7.92248 -3.87755 4.04493 7.90564 -4.33925 3.56639 8.36735 -4.63138 3.73596 
7.84701 -3.7796 4.06742 7.47514 -3.32941 4.14573 7.59193 -2.89806 4.69388 
5.73484 -1.65657 4.07827 5.91837 -2.2952 3.62317 5.70673 -1.42857 4.27816 
5.986 -2.4322 3.55381 6.21215 -2.51624 3.69591 5.75768 -1.0638 4.69388 
7.94801 -2.65306 5.29494 8.27862 -2.36026 5.91837 5.91837 -0.810598 5.10777 
6.47616 -0.557796 5.91837 7.87165 -1.55986 6.31179 8.05017 -1.42857 6.62159 
8.26477 -1.96327 6.3015 6.89651 -0.204082 6.69242 7.14286 -0.40255 6.74031 
7.14286 -0.82523 6.31763 6.80264 -0.544052 6.25859 7.69398 -1.24117 6.45281 
7.63635 -0.493492 7.14286 6.93931 0.203547 7.14286 7.66747 -0.204082 7.46339 
7.14286 0.180233 7.32309 
CELLS 97 291
2 0 1 
2 2 0 
2 1 3 
2 4 2 
2 5 4 
2 6 5 
2 7 8 
2 3 7 
2 8 9 
2 10 11 
2 12 10 
2 13 6 
2 11 13 
2 14 12 
2 15 14 
2 9 16 
2 16 17 
2 17 18 
2 19 15 
2 20 19 
2 18 21 
2 22 20 
2 23 22 
2 21 23 
2 24 25 
2 26 24 
2 27 26 
2 25 28 
2 28 29 
2 29 30 
2 31 32 
2 33 31 
2 32 27 
2 34 33 
2 35 34 
2 30 36 
2 36 37 
2 37 38 
2 39 40 
2 40 41 
2 41 35 
2 42 43 
2 44 42 
2 45 44 
2 46 39 
2 43 46 
2 38 47 
2 48 45 
2 47 48 
2 49 50 
2 50 51 
2 52 53 
2 53 54 
2 54 49 
2 55 52 
2 56 55 
2 51 57 
2 58 59 
2 60 58 
2 61 60 
2 57 61 
2 62 56 
2 63 62 
2 64 65 
2 65 63 
2 66 64 
2 59 67 
2 68 69 
2 70 68 
2 71 70 
2 67 71 
2 69 72 
2 72 73 
2 73 74 
2 75 76 
2 77 75 
2 76 78 
2 78 79 
2 79 66 
2 80 77 
2 74 81 
2 81 82 
2 83 80 
2 84 83 
2 85 86 
2 87 85 
2 82 87 
2 88 89 
2 90 91 
2 91 84 
2 86 92 
2 92 90 
2 89 93 
2 94 88 
2 93 95 
2 96 94 
2 95 96 

CELL_TYPES 97
3
3
3
3
3
3
3
3
3
3
3
3
3
3
3
3
3
3
3
3
3
3
3
3
3
3
3
3
3
3
3
3
3
3
3
3
3
3
3
3
3
3
3
3
3
3
3
3
3
3
3
3
3
3
3
3
3
3
3
3
3
3
3
3
3
3
3
3
3
3
3
3
3
3
3
3
3
3
3
3
3
3
3
3
3
3
3
3
3
3
3
3
3
3
3
3
3


CELL_DATA 97
FIELD FieldData 1
zonal 1 97 float
3.66417 3.66417 3.66936 3.3648 3.3648 3.2722 4.24938 4.24938 4.13303 
4.06425 4.06425 3.74413 3.74413 3.20734 3.20734 4.24126 4.24126 3.58346 
3.30068 2.43114 3.71399 3.02739 3.02739 2.88145 3.2645 3.2645 3.2645 
2.71309 2.71309 2.71309 3.01691 3.01691 2.90943 2.92744 2.92744 4.24477 
4.24477 3.42801 2.22643 2.22643 2.22643 2.23614 2.23614 2.23614 2.8861 
2.9086 3.66541 2.03543 3.07351 3.44956 3.36311 3.70837 3.99177 3.99177 
3.99141 3.99141 3.2588 3.93806 3.93806 3.93806 3.93806 3.88564 3.88564 
3.73674 3.73674 3.56298 3.43606 3.71547 3.71547 3.71547 3.69298 3.23992 
3.23992 3.23992 3.37027 3.37027 2.83054 2.83054 2.83054 3.52713 2.63378 
2.01908 3.59716 3.04832 3.73056 3.73056 3.73056 4.27803 4.27803 4.27803 
3.90107 3.90107 3.90107 3.65492 4.46506 3.67771 3.80657 
POINT_DATA 97
SCALARS hardyglobal float
LOOKUP_TABLE default
3.68961 3.7359 3.66354 3.86356 3.65201 3.71679 3.71815 3.87233 3.95071 
3.93545 3.28441 3.71615 3.14478 3.71716 3.12311 2.88824 3.914 3.84939 
3.23324 2.79449 2.79089 2.99109 2.80399 2.80615 2.75259 2.72388 2.95291 
2.87012 2.77869 2.79485 3.30474 2.46054 2.58625 2.45456 2.46105 2.57913 
3.53677 3.55469 3.07047 2.67501 2.67355 2.54987 2.68918 2.68162 2.66651 
2.77135 2.67912 3.03169 2.98571 3.87516 3.84626 3.75665 4.41666 4.3632 
4.31966 4.27074 4.2661 3.74781 3.66896 3.67669 3.66882 3.71505 4.03512 
3.74025 3.05308 3.1649 3.0315 3.69267 3.27427 3.23056 3.64319 3.64416 
3.16417 2.88155 2.29892 3.13794 3.0589 3.15151 3.05425 2.87723 3.19321 
2.67696 3.24379 3.42904 3.73443 3.8079 3.94583 3.51569 3.74409 3.89142 
3.92137 3.77162 3.98949 4.19725 3.52866 3.98734 3.53531 
FIELD FieldData 1
nodal 1 97 float
3.79916 3.79684 3.80219 3.82351 3.78982 3.77668 3.77704 3.81479 3.772 
3.73872 3.63156 3.77628 3.53104 3.77667 3.51355 3.3838 3.72913 3.71202 
3.45052 3.33134 3.30326 3.34064 3.28623 3.27641 3.07764 3.06643 3.14307 
3.15017 3.1015 3.11935 3.34416 3.0226 3.08585 3.02592 3.03276 3.13399 
3.46765 3.48504 3.30769 3.21574 3.21468 3.11778 3.21368 3.21763 3.19074 
3.24022 3.21727 3.29093 3.29122 4.00157 3.99789 3.98706 4.24829 4.21076 
4.19061 4.15882 4.15579 3.98582 3.9633 3.99155 3.96295 3.96823 4.02168 
3.85857 3.50367 3.55833 3.49581 4.00492 3.70006 3.67714 3.8995 3.9485 
3.63712 3.47372 3.04455 3.50645 3.49279 3.51213 3.49897 3.40372 3.52022 
3.28336 3.64986 3.6218 3.7595 3.84697 3.93764 3.7765 3.75121 3.81579 
3.84109 3.77449 3.90274 4.06486 3.45933 4.01603 3.49374 
