# vtk DataFile Version 3.0
vtk output
ASCII
DATASET UNSTRUCTURED_GRID
POINTS 216 float
-9.98358 -9.96362 -9.97201 -5.89827 -9.95102 -9.98128 -5.90015 -5.85778 -9.93883 
-9.96533 -5.87154 -9.94849 -9.97598 -9.94996 -5.88784 -5.90657 -9.93455 -5.89153 
-5.89252 -5.84706 -5.90558 -9.94759 -5.84446 -5.88421 -1.84319 -9.95293 -9.96895 
-1.85657 -5.86583 -9.9355 -1.87466 -9.91573 -5.90851 -2.07272 -6.06097 -5.73322 
2.24096 -9.96702 -9.98164 2.23071 -5.87937 -9.97682 2.28526 -10.0356 -5.91695 
2.22227 -5.90299 -5.97219 6.32456 -9.96019 -9.96524 6.32891 -5.89594 -9.93608 
6.31686 -9.9485 -5.90406 6.42413 -5.86479 -5.74245 9.97896 -9.96365 -9.96393 
9.96397 -5.90282 -9.9388 9.97734 -9.92355 -5.89043 9.86209 -5.94297 -5.8576 
-5.82127 -1.77048 -9.85492 -9.94787 -1.8275 -9.874 -6.03549 -1.77425 -5.9197 
-9.69289 -1.6265 -6.18279 -1.88728 -1.75006 -9.91925 -1.88789 -1.7948 -5.96544 
2.20793 -1.78536 -9.94752 2.2536 -1.71759 -5.91522 6.30363 -1.8128 -9.94628 
6.38801 -1.67402 -5.83539 9.9658 -1.82553 -9.95233 9.96431 -1.7906 -5.90476 
-5.60512 2.62128 -9.6646 -9.98075 2.21462 -9.9567 -5.74277 2.32816 -5.99092 
-9.98855 2.15729 -5.88 -1.87182 2.17198 -9.91983 -1.79904 2.20309 -5.87382 
2.21091 2.21666 -9.89803 2.24825 2.24732 -5.92015 6.29396 2.234 -9.91769 
6.24764 2.25169 -5.75978 9.96168 2.24619 -9.93533 9.89903 2.29041 -5.81877 
-5.84456 6.33461 -9.97092 -9.9506 6.34223 -9.98587 -5.86809 6.3718 -5.97675 
-9.98485 6.32482 -5.89711 -1.93992 6.32857 -9.96362 -1.81828 6.32961 -5.86429 
2.28863 6.20532 -9.99122 2.32393 6.20319 -5.80151 6.31244 6.30858 -9.93957 
6.27763 6.25638 -5.77953 9.96884 6.30282 -9.93625 9.85518 6.22134 -5.77038 
-5.97065 9.9319 -9.91014 -9.88518 9.97432 -9.95327 -5.89893 9.96818 -5.97663 
-9.94686 9.97749 -5.93809 -1.9469 9.88133 -9.97353 -1.86086 9.92596 -5.88973 
2.25443 10.023 -9.99018 2.25653 9.93801 -5.8423 6.319 9.96117 -9.95192 
6.30692 9.90315 -5.87595 9.97554 9.96631 -9.96154 9.95613 9.92608 -5.88903 
-9.96088 -9.90982 -1.78338 -5.94632 -9.91411 -1.8128 -6.00431 -5.96074 -1.82354 
-9.91486 -5.92765 -1.77186 -1.85314 -9.93307 -1.86026 -1.75382 -5.91048 -1.85925 
2.40549 -9.85674 -1.89595 2.1149 -5.78892 -1.74967 6.37991 -9.98724 -1.69031 
6.48117 -5.65833 -1.98285 9.93131 -9.9318 -1.82276 9.8174 -5.93358 -1.86404 
-5.92432 -1.80906 -2.10255 -9.87502 -1.88863 -1.948 -2.01442 -1.65552 -1.89145 
2.38886 -1.78709 -1.80643 6.52148 -1.7184 -1.9597 9.76582 -1.41289 -1.87903 
-6.00363 2.17711 -1.83258 -9.52196 2.08406 -1.87895 -1.6859 2.30574 -1.98254 
2.31026 2.30693 -1.84493 6.39048 2.29975 -1.79453 9.80724 2.23682 -1.83856 
-6.01063 6.32561 -1.81701 -9.9721 6.27623 -1.8267 -1.62632 6.31595 -1.88112 
2.35615 6.33957 -1.69631 6.25717 6.17002 -1.9044 9.9312 6.20993 -2.02072 
-5.98625 9.88163 -1.73965 -9.95258 9.96756 -1.8295 -1.78405 9.92013 -1.85037 
2.24343 9.87221 -1.81971 6.27545 9.90756 -1.85194 9.95831 9.94577 -1.86329 
-9.94199 -9.86565 2.21178 -6.10044 -9.85486 2.26923 -5.90643 -6.08573 2.20135 
-9.88933 -6.06104 2.12932 -1.97555 -10.1397 2.31899 -1.87341 -5.88271 2.24951 
2.28299 -9.94199 2.22799 2.26073 -5.83904 2.26858 6.34097 -9.93611 2.17233 
6.47431 -5.7759 2.18906 9.95922 -9.93791 2.20976 9.79834 -5.83116 2.21683 
-5.72976 -1.73389 2.14774 -10.0689 -1.84059 2.22817 -1.78851 -1.82229 2.28931 
2.28502 -1.82274 2.25324 6.30096 -1.81048 2.06964 9.93063 -1.81973 2.20177 
-5.8887 2.27581 2.24788 -9.97191 2.26083 2.19313 -1.80833 2.24963 2.24265 
2.30064 2.24398 2.20909 6.42928 2.20738 2.26583 9.81829 2.22096 2.25513 
-5.9285 6.30655 2.28969 -9.96727 6.30921 2.24715 -1.76677 6.3037 2.27157 
2.39126 6.40732 2.21953 5.91795 6.02825 2.09736 10.0012 6.21961 2.29821 
-5.91419 9.97183 2.24412 -9.96468 9.96545 2.25535 -1.8055 9.96053 2.24069 
2.26103 9.88345 2.22274 6.22698 10.0118 2.19893 9.99184 9.97731 2.23858 
-9.93647 -9.92201 6.31245 -6.01197 -9.85891 6.41454 -5.96176 -5.99742 6.31033 
-9.87352 -5.95616 6.42918 -1.94123 -9.9212 6.31344 -1.84741 -5.82779 6.31229 
2.35584 -9.89002 6.25626 2.06074 -5.77599 6.14513 6.31323 -9.9616 6.31964 
6.26243 -5.82105 6.31028 9.98636 -9.95838 6.30222 9.95668 -5.86777 6.28562 
-5.83546 -1.7906 6.39047 -9.99233 -1.86154 6.34904 -1.85359 -1.88187 6.37593 
2.33876 -1.91516 6.39434 6.34403 -2.04781 6.85362 9.90178 -1.78395 6.37065 
-5.86517 2.26722 6.32053 -9.96361 2.26314 6.32127 -1.84219 2.20842 6.33894 
2.30994 2.23022 6.29626 6.30733 2.34778 6.15285 9.9106 2.32284 6.26826 
-5.9222 6.3327 6.34516 -9.91495 6.39812 6.3719 -1.82742 6.33722 6.3862 
2.28163 6.31036 6.25349 6.32941 6.22041 6.30113 9.86227 6.10498 6.32415 
-5.94997 9.93097 6.33874 -9.90933 9.88173 6.38247 -1.82956 9.92782 6.33033 
2.23657 9.92346 6.29272 6.28845 9.9395 6.32276 9.97494 9.94089 6.32381 
-9.96121 -9.9361 9.94675 -5.93752 -9.94238 9.92242 -5.96697 -5.93474 9.96241 
-9.89751 -5.92667 9.84088 -1.87769 -9.9448 9.9976 -1.83673 -5.84481 9.94919 
2.25995 -9.9378 10.0162 2.243 -5.81783 9.90504 6.31728 -9.95815 9.97832 
6.31752 -5.92077 9.93899 9.98377 -9.96824 9.97789 9.97067 -5.87643 9.9603 
-5.72375 -1.77226 10.0166 -9.95823 -1.85742 9.97312 -1.97162 -1.81013 9.94212 
2.28735 -1.86712 9.8584 6.27422 -1.81421 9.82829 9.9269 -1.80386 9.91623 
-5.87274 2.21968 9.96766 -9.95878 2.2497 9.97286 -1.84358 2.21467 9.96142 
2.23997 2.21941 9.94971 6.31248 2.22849 9.95159 9.95649 2.24184 9.91905 
-5.91562 6.3108 9.93676 -9.94134 6.35875 9.91564 -1.83595 6.40418 9.79587 
2.21937 6.30269 9.94253 6.31931 6.28678 9.92862 9.95926 6.28027 9.9182 
-5.94347 9.96437 9.94214 -9.94528 9.93077 9.91036 -1.83012 9.90527 9.94716 
2.2252 9.94938 9.95878 6.30798 9.95391 9.96491 9.97447 9.9574 9.97056 

CELLS 125 1125
8 0 1 2 3 4 5 6 7 
8 1 8 9 2 5 10 11 6 
8 8 12 13 9 10 14 15 11 
8 12 16 17 13 14 18 19 15 
8 16 20 21 17 18 22 23 19 
8 3 2 24 25 7 6 26 27 
8 2 9 28 24 6 11 29 26 
8 9 13 30 28 11 15 31 29 
8 13 17 32 30 15 19 33 31 
8 17 21 34 32 19 23 35 33 
8 25 24 36 37 27 26 38 39 
8 24 28 40 36 26 29 41 38 
8 28 30 42 40 29 31 43 41 
8 30 32 44 42 31 33 45 43 
8 32 34 46 44 33 35 47 45 
8 37 36 48 49 39 38 50 51 
8 36 40 52 48 38 41 53 50 
8 40 42 54 52 41 43 55 53 
8 42 44 56 54 43 45 57 55 
8 44 46 58 56 45 47 59 57 
8 49 48 60 61 51 50 62 63 
8 48 52 64 60 50 53 65 62 
8 52 54 66 64 53 55 67 65 
8 54 56 68 66 55 57 69 67 
8 56 58 70 68 57 59 71 69 
8 4 5 6 7 72 73 74 75 
8 5 10 11 6 73 76 77 74 
8 10 14 15 11 76 78 79 77 
8 14 18 19 15 78 80 81 79 
8 18 22 23 19 80 82 83 81 
8 7 6 26 27 75 74 84 85 
8 6 11 29 26 74 77 86 84 
8 11 15 31 29 77 79 87 86 
8 15 19 33 31 79 81 88 87 
8 19 23 35 33 81 83 89 88 
8 27 26 38 39 85 84 90 91 
8 26 29 41 38 84 86 92 90 
8 29 31 43 41 86 87 93 92 
8 31 33 45 43 87 88 94 93 
8 33 35 47 45 88 89 95 94 
8 39 38 50 51 91 90 96 97 
8 38 41 53 50 90 92 98 96 
8 41 43 55 53 92 93 99 98 
8 43 45 57 55 93 94 100 99 
8 45 47 59 57 94 95 101 100 
8 51 50 62 63 97 96 102 103 
8 50 53 65 62 96 98 104 102 
8 53 55 67 65 98 99 105 104 
8 55 57 69 67 99 100 106 105 
8 57 59 71 69 100 101 107 106 
8 72 73 74 75 108 109 110 111 
8 73 76 77 74 109 112 113 110 
8 76 78 79 77 112 114 115 113 
8 78 80 81 79 114 116 117 115 
8 80 82 83 81 116 118 119 117 
8 75 74 84 85 111 110 120 121 
8 74 77 86 84 110 113 122 120 
8 77 79 87 86 113 115 123 122 
8 79 81 88 87 115 117 124 123 
8 81 83 89 88 117 119 125 124 
8 85 84 90 91 121 120 126 127 
8 84 86 92 90 120 122 128 126 
8 86 87 93 92 122 123 129 128 
8 87 88 94 93 123 124 130 129 
8 88 89 95 94 124 125 131 130 
8 91 90 96 97 127 126 132 133 
8 90 92 98 96 126 128 134 132 
8 92 93 99 98 128 129 135 134 
8 93 94 100 99 129 130 136 135 
8 94 95 101 100 130 131 137 136 
8 97 96 102 103 133 132 138 139 
8 96 98 104 102 132 134 140 138 
8 98 99 105 104 134 135 141 140 
8 99 100 106 105 135 136 142 141 
8 100 101 107 106 136 137 143 142 
8 108 109 110 111 144 145 146 147 
8 109 112 113 110 145 148 149 146 
8 112 114 115 113 148 150 151 149 
8 114 116 117 115 150 152 153 151 
8 116 118 119 117 152 154 155 153 
8 111 110 120 121 147 146 156 157 
8 110 113 122 120 146 149 158 156 
8 113 115 123 122 149 151 159 158 
8 115 117 124 123 151 153 160 159 
8 117 119 125 124 153 155 161 160 
8 121 120 126 127 157 156 162 163 
8 120 122 128 126 156 158 164 162 
8 122 123 129 128 158 159 165 164 
8 123 124 130 129 159 160 166 165 
8 124 125 131 130 160 161 167 166 
8 127 126 132 133 163 162 168 169 
8 126 128 134 132 162 164 170 168 
8 128 129 135 134 164 165 171 170 
8 129 130 136 135 165 166 172 171 
8 130 131 137 136 166 167 173 172 
8 133 132 138 139 169 168 174 175 
8 132 134 140 138 168 170 176 174 
8 134 135 141 140 170 171 177 176 
8 135 136 142 141 171 172 178 177 
8 136 137 143 142 172 173 179 178 
8 144 145 146 147 180 181 182 183 
8 145 148 149 146 181 184 185 182 
8 148 150 151 149 184 186 187 185 
8 150 152 153 151 186 188 189 187 
8 152 154 155 153 188 190 191 189 
8 147 146 156 157 183 182 192 193 
8 146 149 158 156 182 185 194 192 
8 149 151 159 158 185 187 195 194 
8 151 153 160 159 187 189 196 195 
8 153 155 161 160 189 191 197 196 
8 157 156 162 163 193 192 198 199 
8 156 158 164 162 192 194 200 198 
8 158 159 165 164 194 195 201 200 
8 159 160 166 165 195 196 202 201 
8 160 161 167 166 196 197 203 202 
8 163 162 168 169 199 198 204 205 
8 162 164 170 168 198 200 206 204 
8 164 165 171 170 200 201 207 206 
8 165 166 172 171 201 202 208 207 
8 166 167 173 172 202 203 209 208 
8 169 168 174 175 205 204 210 211 
8 168 170 176 174 204 206 212 210 
8 170 171 177 176 206 207 213 212 
8 171 172 178 177 207 208 214 213 
8 172 173 179 178 208 209 215 214 

CELL_TYPES 125
12
12
12
12
12
12
12
12
12
12
12
12
12
12
12
12
12
12
12
12
12
12
12
12
12
12
12
12
12
12
12
12
12
12
12
12
12
12
12
12
12
12
12
12
12
12
12
12
12
12
12
12
12
12
12
12
12
12
12
12
12
12
12
12
12
12
12
12
12
12
12
12
12
12
12
12
12
12
12
12
12
12
12
12
12
12
12
12
12
12
12
12
12
12
12
12
12
12
12
12
12
12
12
12
12
12
12
12
12
12
12
12
12
12
12
12
12
12
12
12
12
12
12
12
12

CELL_DATA 125
FIELD FieldData 1
zonal 1 125 float
2.12651 2.23655 2.30367 2.20607 2.21764 2.5701 2.83811 2.83385 2.56669 
2.58123 2.9952 3.6365 3.50407 3.02973 2.75556 2.60431 3.83212 3.56315 
3.23267 2.88204 2.54381 3.21552 3.09381 2.46411 2.64058 2.43069 2.59354 
2.53826 2.23287 2.47354 3.04179 3.3009 4.04014 2.30504 3.68887 4.43951 
4.08235 3.51686 3.34099 3.29878 2.9986 2.85097 3.77168 5.26789 4.15468 
2.61024 2.86093 3.45753 3.74969 3.88816 2.86858 2.81056 2.51608 3.17557 
3.28922 3.3918 3.09088 3.26012 3.55715 4.09958 3.1483 3.32668 2.63275 
3.60394 5.24058 4.43157 3.21174 3.89719 4.22944 5.15507 2.8052 2.50196 
3.26784 4.80629 3.89226 3.07507 2.62261 1.41266 2.42695 2.68063 3.4088 
3.30338 3.16153 3.40102 3.91584 2.48099 2.1514 3.18874 3.64967 3.55606 
2.86856 3.09604 3.35993 3.78059 4.62471 2.79394 2.90045 3.17416 4.04349 
2.90791 2.83496 3.64593 2.20986 2.09402 2.25209 3.43994 3.07866 3.29498 
4.11988 3.07583 2.65355 2.87837 3.62634 4.07384 4.95254 2.72514 3.15544 
3.26907 3.39811 3.43305 3.18848 3.2106 3.40977 3.4471 3.35531 
POINT_DATA 216
SCALARS nodal float
LOOKUP_TABLE default
3.34106 2.67142 3.52902 3.5712 3.44965 3.32869 3.50107 3.61525 3.40238 
3.5516 3.3405 4.16178 3.42803 3.49784 3.14923 2.99915 3.49367 3.57552 
3.30598 3.69222 3.55326 3.63243 3.47975 3.68172 3.83756 3.74548 3.77385 
4.38268 3.77584 3.61525 3.68396 3.61967 3.69018 3.52677 3.71999 3.7667 
3.58181 3.54929 3.36151 3.59778 3.78904 3.75374 3.7772 5.16403 3.76603 
4.02101 3.79452 4.00141 3.5803 3.4788 3.33592 3.39963 3.58576 3.58924 
3.3256 3.77718 3.6737 3.93936 3.7957 4.20066 3.68886 3.6342 3.45363 
3.50142 3.55048 3.53789 3.33476 3.58485 3.66467 3.79064 3.75031 3.84729 
3.59456 3.3944 3.32907 3.67177 3.23424 3.3525 3.41838 3.46289 3.47592 
3.79157 3.54805 3.78322 3.24891 3.44653 3.1685 3.57755 4.31602 3.66439 
3.49655 4.4337 3.79041 3.92396 4.30383 4.11864 3.1397 3.47838 3.41245 
4.47625 3.99156 3.7694 3.31108 3.4402 3.53994 3.79243 3.79804 3.75636 
3.67154 3.09232 3.36978 3.66269 2.08807 3.32536 3.1554 3.47163 3.34828 
3.80183 3.52429 3.86471 2.53957 3.002 3.38281 3.6246 3.74894 3.80208 
3.37391 3.41325 3.51726 3.74619 4.07165 3.9941 3.35235 3.46973 3.49032 
3.90205 3.52657 3.61363 3.44578 3.50437 3.55705 3.79323 3.55246 3.62214 
3.58249 3.80254 3.36777 3.70675 3.02907 3.4701 2.81949 4.16383 3.18982 
3.53119 3.44005 3.60863 3.13084 3.26886 3.56813 3.83491 4.79508 3.77315 
3.44341 3.41367 3.46672 3.48552 3.61468 3.93108 3.44791 3.65757 3.60622 
3.79925 3.84666 4.13788 3.58331 3.80057 3.62273 3.73814 3.69752 3.72797 
3.5941 3.50958 3.48015 3.79963 3.2465 3.49767 3.17802 3.58781 3.40885 
3.20085 3.49841 3.57666 3.71451 3.50418 3.81108 3.82383 3.74843 3.74749 
3.57583 3.51615 3.63426 3.67311 3.71113 3.80141 3.46156 3.68517 3.85518 
3.70901 3.78188 3.85194 3.38862 3.74998 3.6154 3.69689 3.72971 3.75157 

