# vtk DataFile Version 3.0
vtk output
ASCII
DATASET UNSTRUCTURED_GRID
POINTS 100 float
-2.0707 6.80971 -2.93328 -3.62614 7.72857 -9.68834 -6.81263 -2.32568 3.82009 
7.99709 -6.72908 -6.81857 2.08288 1.65398 -4.60058 -4.13199 4.84755 -4.02949 
-1.90035 7.14756 8.83937 6.92952 -9.9449 -0.752415 5.75753 -4.68776 9.65505 
2.0171 2.17431 -5.75122 -3.90686 -6.9628 -3.24676 2.8722 5.07107 2.07232 
-0.812794 3.04977 -3.45638 -2.6392 8.87781 -9.85143 -4.54458 -9.51402 1.83909 
7.55387 -8.81263 -4.78315 7.8299 -0.0360388 4.20051 7.29847 3.51081 -0.830201 
5.49351 -2.46897 -5.42722 -3.99363 3.39532 4.37933 6.48931 -2.18776 6.37533 
-6.39064 8.86792 -1.50226 -8.68713 8.27016 7.65169 -2.02155 3.76514 5.23097 
-7.49498 -0.307322 -5.55075 0.576438 -9.97172 7.21028 6.29784 -5.14232 -3.70856 
8.7112 6.18863 -0.157817 1.52707 -4.21942 -3.57866 -6.52024 -9.96365 -9.10432 
-1.69098 4.03249 -5.56309 -8.6594 -2.13873 -0.410469 -5.60977 8.32406 -2.99556 
-5.7753 2.67363 -8.92869 -9.38652 -1.11807 -6.47174 8.19297 -0.543103 7.43391 
8.60379 -0.898189 -2.02866 3.87093 6.77469 4.79398 3.56308 1.54425 -4.53763 
3.23878 -9.05175 -2.53923 -7.02744 -2.45389 2.89183 6.82761 -8.45962 4.85268 
8.03688 -2.44705 -3.6094 2.97065 -4.9737 -5.42711 8.86442 -7.2657 -4.59878 
-3.51957 7.3016 -4.06593 6.66295 7.52615 2.99329 7.97094 -4.92837 2.22637 
6.64039 -2.54826 5.14096 7.01624 1.18659 7.15161 3.83539 -3.09605 7.87169 
-7.5653 9.63089 -8.8995 -9.23747 -2.47055 0.512097 1.21076 2.14486 6.32879 
-9.45777 -0.56292 -4.30203 -6.0864 -9.64841 6.59198 -7.90439 4.65953 -7.61805 
8.94506 4.78103 6.42714 -4.9804 -4.87009 -3.23614 0.546369 -4.67182 -1.97559 
-9.08216 -4.10852 -2.11507 -3.78358 6.45154 -0.49037 -4.75198 8.34088 9.56872 
8.04148 -5.1873 -2.53671 -0.843452 8.01256 -1.54211 9.40924 -2.92258 -1.36987 
-5.69362 -3.25646 -0.912645 3.67765 -8.75702 1.02751 -4.63564 0.0153199 -8.74926 
4.59152 6.12631 -6.96051 4.59915 6.85132 2.35857 -0.412237 0.54171 -9.41227 
-9.04861 1.85539 -1.94706 -3.39738 -3.78325 7.0989 -8.02747 -3.19083 -1.96521 
2.5919 6.63925 -1.25761 -8.81076 -7.2973 0.876478 7.69798 -2.20211 -1.70885 
-4.26483 -7.84487 1.53352 -7.15498 6.17354 4.96188 -0.497685 -3.11081 -1.66402 
0.51622 4.35783 -5.27955 5.59901 5.25501 -7.56875 8.56503 5.32013 -4.20841 
-1.43786 -9.24374 1.96653 5.13448 -7.38642 -2.50866 1.55594 -5.88673 5.74042 
-0.893272 -4.29463 7.0044 6.70024 -1.39508 -3.38008 -5.02254 -2.86412 -1.64259 
7.70586 1.26331 3.71 -6.35262 1.35611 -9.40671 -6.8447 0.951888 -5.92019 
-8.65412 -6.13805 8.03043 -3.9482 -1.55984 9.79051 -2.25057 -6.36119 -5.50537 
0.670141 3.29472 -5.96338 1.32994 -8.05072 -4.45953 1.27768 7.73879 -8.5962 
-4.93386 -3.85871 7.9328 
CELLS 477 2385
4 65 57 27 90 
4 17 77 36 90 
4 35 47 41 48 
4 73 23 19 94 
4 24 74 58 89 
4 17 38 11 75 
4 20 35 16 49 
4 30 33 1 71 
4 47 67 59 85 
4 42 65 3 83 
4 51 56 34 91 
4 49 6 8 57 
4 10 29 14 76 
4 46 75 64 98 
4 58 34 24 68 
4 52 54 31 60 
4 35 47 16 65 
4 80 68 58 89 
4 0 61 12 64 
4 62 61 21 64 
4 72 54 56 92 
4 3 29 15 97 
4 95 29 43 97 
4 36 77 17 88 
4 45 13 32 64 
4 27 36 17 83 
4 48 41 8 50 
4 61 62 6 64 
4 68 29 34 91 
4 61 11 12 64 
4 56 33 5 92 
4 28 95 43 97 
4 57 46 27 90 
4 68 91 24 92 
4 5 61 32 72 
4 5 30 1 45 
4 12 81 4 96 
4 94 93 2 99 
4 4 18 9 38 
4 15 29 7 39 
4 44 26 15 85 
4 58 60 10 76 
4 25 67 7 84 
4 26 42 18 88 
4 83 82 69 98 
4 18 71 9 82 
4 77 16 36 90 
4 3 26 15 44 
4 15 26 3 43 
4 32 13 21 64 
4 41 44 7 47 
4 57 65 16 90 
4 19 80 40 89 
4 6 49 8 50 
4 29 58 10 95 
4 96 81 69 98 
4 5 12 0 61 
4 8 49 35 50 
4 8 87 25 94 
4 28 18 26 43 
4 29 55 14 76 
4 19 23 12 61 
4 55 93 25 94 
4 34 91 56 92 
4 60 29 10 76 
4 35 20 16 48 
4 12 5 0 30 
4 15 39 7 85 
4 37 49 6 53 
4 6 50 8 94 
4 61 62 21 79 
4 80 66 40 89 
4 11 53 23 80 
4 68 80 12 89 
4 39 85 15 97 
4 29 39 15 97 
4 28 59 26 77 
4 7 29 14 39 
4 18 43 9 71 
4 73 80 19 87 
4 20 48 8 50 
4 25 41 7 67 
4 16 77 48 90 
4 52 66 40 76 
4 76 55 2 93 
4 63 26 44 85 
4 28 18 4 38 
4 23 12 11 80 
4 29 10 14 97 
4 25 86 84 87 
4 45 32 13 51 
4 71 29 68 91 
4 35 20 8 50 
4 32 61 0 64 
4 11 64 37 70 
4 47 59 48 77 
4 16 48 20 53 
4 77 36 42 88 
4 10 76 14 78 
4 32 21 13 51 
4 26 18 3 43 
4 43 71 29 95 
4 72 74 24 89 
4 19 23 6 94 
4 72 89 24 92 
4 33 68 30 92 
4 3 43 18 71 
4 30 5 0 45 
4 37 62 46 64 
4 29 71 68 95 
4 72 54 24 74 
4 68 33 30 71 
4 52 31 40 66 
4 1 71 13 98 
4 30 71 1 98 
4 10 80 58 89 
4 1 30 5 33 
4 56 91 33 92 
4 29 43 3 71 
4 9 18 4 43 
4 10 95 59 97 
4 47 63 7 85 
4 1 45 13 51 
4 22 51 21 72 
4 51 56 21 72 
4 72 21 22 79 
4 49 35 16 90 
4 6 62 37 64 
4 6 49 37 57 
4 23 37 6 53 
4 37 46 6 57 
4 61 72 19 79 
4 69 46 27 98 
4 18 26 3 42 
4 18 42 3 82 
4 44 63 47 65 
4 11 37 23 53 
4 54 72 31 74 
4 21 62 22 79 
4 18 38 28 88 
4 28 59 39 85 
4 57 35 49 90 
4 58 68 24 89 
4 34 58 29 95 
4 20 35 8 41 
4 26 43 15 85 
4 28 71 43 95 
4 41 67 25 86 
4 50 49 20 53 
4 60 31 52 74 
4 55 73 25 87 
4 71 68 33 91 
4 11 12 4 80 
4 47 48 16 77 
4 16 47 35 48 
4 28 43 26 85 
4 44 42 26 63 
4 35 49 8 57 
4 28 26 18 88 
4 17 83 36 88 
4 4 71 28 80 
4 56 51 33 91 
4 26 63 42 77 
4 18 28 4 43 
4 68 58 34 95 
4 29 68 34 95 
4 71 30 12 96 
4 10 58 29 60 
4 0 75 12 81 
4 42 26 3 44 
4 47 44 7 63 
4 67 39 7 84 
4 3 71 18 82 
4 47 65 63 77 
4 0 45 32 64 
4 46 64 13 98 
4 81 96 30 98 
4 96 71 30 98 
4 61 32 21 64 
4 17 36 27 90 
4 17 46 27 70 
4 19 73 2 80 
4 41 47 7 67 
4 5 30 12 92 
4 41 20 35 48 
4 59 84 67 86 
4 80 78 66 89 
4 6 57 46 62 
4 49 50 6 53 
4 84 80 78 86 
4 20 41 8 48 
4 52 22 2 79 
4 42 44 3 65 
4 49 20 35 50 
4 54 72 24 92 
4 80 77 11 90 
4 23 19 12 80 
4 73 94 2 99 
4 48 50 20 53 
4 62 19 6 94 
4 43 29 3 97 
4 25 84 55 87 
4 31 66 52 74 
4 12 71 4 80 
4 28 85 39 97 
4 2 40 19 80 
4 21 51 32 56 
4 58 34 29 60 
4 54 52 31 72 
4 53 37 49 90 
4 52 40 31 72 
4 72 61 21 79 
4 56 51 54 72 
4 21 56 32 72 
4 32 56 5 72 
4 20 49 16 53 
4 37 53 11 90 
4 77 80 48 90 
4 85 28 43 97 
4 80 48 53 86 
4 91 68 33 92 
4 51 54 34 56 
4 51 1 33 91 
4 5 33 30 92 
4 89 72 5 92 
4 62 79 19 94 
4 22 79 62 94 
4 45 5 32 56 
4 32 51 45 56 
4 1 33 5 56 
4 51 33 1 56 
4 5 45 1 56 
4 45 51 1 56 
4 70 11 17 90 
4 57 37 46 90 
4 46 70 17 90 
4 27 70 46 75 
4 57 49 37 90 
4 64 46 37 70 
4 54 34 24 74 
4 30 68 12 92 
4 53 48 50 86 
4 65 47 16 77 
4 63 65 42 77 
4 15 43 3 97 
4 71 12 68 80 
4 66 74 31 89 
4 2 78 73 99 
4 66 78 10 89 
4 6 37 23 64 
4 23 11 12 61 
4 23 61 6 64 
4 83 69 27 98 
4 32 45 0 61 
4 0 45 5 61 
4 45 32 5 61 
4 72 40 19 79 
4 61 21 32 72 
4 19 40 2 79 
4 38 75 69 81 
4 66 58 10 78 
4 22 93 2 94 
4 7 39 14 84 
4 2 79 22 94 
4 71 96 82 98 
4 6 46 37 62 
4 72 22 52 79 
4 65 44 3 83 
4 47 41 44 65 
4 85 43 15 97 
4 7 44 15 85 
4 63 44 7 85 
4 23 37 11 64 
4 11 61 23 64 
4 64 45 13 98 
4 77 42 26 88 
4 46 70 64 75 
4 12 11 4 75 
4 0 64 12 75 
4 36 65 16 77 
4 42 65 36 77 
4 42 63 44 65 
4 65 36 27 83 
4 16 57 35 65 
4 36 65 27 90 
4 11 77 17 90 
4 14 25 7 84 
4 60 54 31 74 
4 14 55 25 84 
4 53 19 23 80 
4 58 76 10 78 
4 40 78 66 80 
4 59 78 10 84 
4 80 59 48 86 
4 8 41 25 86 
4 39 67 7 85 
4 26 59 28 85 
4 59 67 39 85 
4 7 67 47 85 
4 68 30 12 71 
4 9 71 4 96 
4 9 43 4 71 
4 17 70 27 75 
4 82 69 38 83 
4 11 70 17 75 
4 12 30 0 81 
4 64 11 12 75 
4 64 70 11 75 
4 37 70 46 90 
4 27 46 17 90 
4 11 38 4 75 
4 46 69 27 75 
4 43 28 4 71 
4 2 78 40 80 
4 73 78 2 80 
4 12 80 19 89 
4 61 12 19 89 
4 78 80 10 89 
4 31 74 72 89 
4 84 86 78 87 
4 58 66 10 89 
4 76 66 40 78 
4 10 78 59 80 
4 29 95 10 97 
4 60 34 54 74 
4 74 66 58 89 
4 66 58 60 74 
4 34 58 24 74 
4 60 58 34 74 
4 45 64 0 98 
4 69 9 38 81 
4 9 81 69 96 
4 64 75 0 81 
4 81 12 30 96 
4 8 62 6 94 
4 22 52 2 93 
4 66 60 58 76 
4 66 74 60 76 
4 60 74 52 76 
4 74 66 52 76 
4 67 84 25 86 
4 67 59 39 84 
4 36 83 42 88 
4 4 38 11 80 
4 28 38 4 80 
4 70 37 11 90 
4 17 77 11 88 
4 76 58 66 78 
4 76 40 2 78 
4 94 55 93 99 
4 78 55 14 84 
4 10 78 14 84 
4 55 76 2 78 
4 76 55 14 78 
4 19 62 6 79 
4 62 61 6 79 
4 40 52 2 79 
4 72 52 40 79 
4 6 23 19 79 
4 23 61 19 79 
4 61 23 6 79 
4 38 80 28 88 
4 18 82 38 88 
4 83 82 42 88 
4 65 36 16 90 
4 35 57 16 90 
4 77 59 48 80 
4 12 75 4 81 
4 38 9 4 81 
4 4 75 38 81 
4 69 81 75 98 
4 81 64 75 98 
4 71 12 4 96 
4 30 45 0 81 
4 64 81 0 98 
4 81 45 0 98 
4 75 46 69 98 
4 11 38 17 88 
4 65 42 36 83 
4 3 82 42 83 
4 17 75 27 83 
4 9 38 18 82 
4 69 38 9 82 
4 27 75 69 83 
4 38 75 17 83 
4 75 38 69 83 
4 38 83 17 88 
4 77 26 28 88 
4 42 82 18 88 
4 80 86 53 87 
4 80 84 59 86 
4 80 78 59 84 
4 50 86 8 87 
4 8 86 25 87 
4 14 39 29 97 
4 63 77 26 85 
4 77 63 47 85 
4 26 77 59 85 
4 77 47 59 85 
4 53 86 50 87 
4 50 41 8 86 
4 41 50 48 86 
4 48 47 41 86 
4 47 67 41 86 
4 59 47 48 86 
4 67 47 59 86 
4 19 80 53 87 
4 78 80 73 87 
4 86 80 78 87 
4 78 73 55 87 
4 55 84 78 87 
4 53 23 19 87 
4 23 73 19 87 
4 73 23 53 87 
4 82 83 38 88 
4 77 80 11 88 
4 11 80 38 88 
4 77 28 59 88 
4 28 80 59 88 
4 59 80 77 88 
4 66 31 40 89 
4 31 72 40 89 
4 12 61 5 89 
4 61 72 5 89 
4 19 72 61 89 
4 40 72 19 89 
4 53 49 16 90 
4 48 53 16 90 
4 53 80 11 90 
4 80 53 48 90 
4 68 34 24 91 
4 71 33 1 91 
4 72 56 5 92 
4 24 91 34 92 
4 54 24 34 92 
4 34 56 54 92 
4 12 89 5 92 
4 68 89 12 92 
4 89 68 24 92 
4 55 78 2 99 
4 53 50 6 94 
4 50 87 8 94 
4 2 93 55 99 
4 52 40 2 93 
4 40 76 2 93 
4 76 40 52 93 
4 23 53 6 94 
4 73 53 23 94 
4 2 73 19 94 
4 19 79 2 94 
4 73 87 53 94 
4 53 87 50 94 
4 58 80 10 95 
4 68 80 58 95 
4 71 80 68 95 
4 80 71 28 95 
4 59 80 28 95 
4 80 59 10 95 
4 4 81 9 96 
4 69 82 9 96 
4 9 82 71 96 
4 96 69 82 98 
4 39 59 28 97 
4 59 95 28 97 
4 10 84 14 97 
4 84 39 14 97 
4 59 84 10 97 
4 84 59 39 97 
4 81 30 45 98 
4 13 45 1 98 
4 1 45 30 98 
4 78 55 73 99 
4 73 55 25 99 
4 55 94 25 99 
4 87 73 25 99 
4 25 94 87 99 
4 94 73 87 99 

CELL_TYPES 477
10
10
10
10
10
10
10
10
10
10
10
10
10
10
10
10
10
10
10
10
10
10
10
10
10
10
10
10
10
10
10
10
10
10
10
10
10
10
10
10
10
10
10
10
10
10
10
10
10
10
10
10
10
10
10
10
10
10
10
10
10
10
10
10
10
10
10
10
10
10
10
10
10
10
10
10
10
10
10
10
10
10
10
10
10
10
10
10
10
10
10
10
10
10
10
10
10
10
10
10
10
10
10
10
10
10
10
10
10
10
10
10
10
10
10
10
10
10
10
10
10
10
10
10
10
10
10
10
10
10
10
10
10
10
10
10
10
10
10
10
10
10
10
10
10
10
10
10
10
10
10
10
10
10
10
10
10
10
10
10
10
10
10
10
10
10
10
10
10
10
10
10
10
10
10
10
10
10
10
10
10
10
10
10
10
10
10
10
10
10
10
10
10
10
10
10
10
10
10
10
10
10
10
10
10
10
10
10
10
10
10
10
10
10
10
10
10
10
10
10
10
10
10
10
10
10
10
10
10
10
10
10
10
10
10
10
10
10
10
10
10
10
10
10
10
10
10
10
10
10
10
10
10
10
10
10
10
10
10
10
10
10
10
10
10
10
10
10
10
10
10
10
10
10
10
10
10
10
10
10
10
10
10
10
10
10
10
10
10
10
10
10
10
10
10
10
10
10
10
10
10
10
10
10
10
10
10
10
10
10
10
10
10
10
10
10
10
10
10
10
10
10
10
10
10
10
10
10
10
10
10
10
10
10
10
10
10
10
10
10
10
10
10
10
10
10
10
10
10
10
10
10
10
10
10
10
10
10
10
10
10
10
10
10
10
10
10
10
10
10
10
10
10
10
10
10
10
10
10
10
10
10
10
10
10
10
10
10
10
10
10
10
10
10
10
10
10
10
10
10
10
10
10
10
10
10
10
10
10
10
10
10
10
10
10
10
10
10
10
10
10
10
10
10
10
10
10
10
10
10
10
10
10
10
10
10
10
10
10
10
10
10
10
10
10
10
10
10
10
10
10
10
10
10
10
10
10
10
10
10
10
10
10
10
10
10
10
10
10
10
10
10
10
10
10
10
10

CELL_DATA 477
POINT_DATA 100
SCALARS nodal float
LOOKUP_TABLE default
3.23292 3.92045 1.29429 3.66532 2.95239 1.37769 4.31415 3.66298 2.53393 
5.42948 2.93738 3.65814 5.73185 3.583 2.02482 2.51415 2.43207 5.79818 
2.77267 3.82977 5.22004 3.60333 4.80682 3.02504 5.36561 1.09349 5.82866 
2.10068 2.30662 2.20587 3.51955 2.09071 1.96347 4.91706 5.6609 4.47784 
5.46652 4.25635 5.67694 4.09097 1.12844 2.27993 2.05717 2.25461 3.74354 
4.4003 1.36558 5.20945 1.54607 2.71548 5.79354 4.07388 2.40962 3.23267 
2.46362 3.86583 2.11944 5.13066 2.94111 5.35447 3.80001 1.45572 2.66047 
4.76143 3.82962 1.89546 1.22363 2.58086 5.82413 4.52509 5.77724 4.03806 
5.52197 4.67075 5.92584 4.95613 5.65226 5.28431 4.88801 3.05012 1.11824 
4.47433 2.85259 5.9183 1.07798 2.08748 4.74185 3.25004 5.75436 3.48527 
5.8388 2.01981 2.05643 4.91025 4.9856 4.68691 3.34412 1.08656 1.3101 
1.67037 
