# vtk DataFile Version 3.0
vtk output
ASCII
DATASET UNSTRUCTURED_GRID
FIELD FieldData 3
group_id 1 1 int
0 
base_index 1 3 int
0 0 0 
avtOriginalBounds 1 6 double
-10 10 -10 10 -10 10 
POINTS 104 float
-1.42857 -1.42857 -4.28571 1.42857 -1.42857 -4.28571 -1.42857 1.42857 -4.28571 
1.42857 1.42857 -4.28571 -1.42857 -4.28571 -1.42857 1.42857 -4.28571 -1.42857 
-4.28571 -1.42857 -1.42857 -1.42857 -1.42857 -1.42857 4.28572 -1.42857 -1.42857 
1.42857 -1.42857 -1.42857 -4.28571 1.42857 -1.42857 -1.42857 4.28572 -1.42857 
-1.42857 1.42857 -1.42857 1.42857 4.28572 -1.42857 1.42857 1.42857 -1.42857 
4.28572 1.42857 -1.42857 -1.42857 -4.28571 1.42857 1.42857 -4.28571 1.42857 
-4.28571 -1.42857 1.42857 -1.42857 -1.42857 4.28572 -1.42857 -1.42857 1.42857 
1.42857 -1.42857 4.28572 1.42857 -1.42857 1.42857 4.28572 -1.42857 1.42857 
-4.28571 1.42857 1.42857 -1.42857 4.28572 1.42857 -1.42857 1.42857 1.42857 
-1.42857 1.42857 4.28572 1.42857 4.28572 1.42857 1.42857 1.42857 1.42857 
4.28572 1.42857 1.42857 1.42857 1.42857 4.28572 -1.42857 -3.8 -4.28571 
-1.42857 -1.42857 -5.47143 -3.8 -1.42857 -4.28571 1.42857 -1.42857 -5.47143 
1.42857 -3.8 -4.28571 3.8 -1.42857 -4.28571 -3.8 1.42857 -4.28571 
-1.42857 1.42857 -5.47143 1.42857 1.42857 -5.47143 3.8 1.42857 -4.28571 
-1.42857 3.8 -4.28571 1.42857 3.8 -4.28571 -1.42857 -5.47143 -1.42857 
-1.42857 -4.28571 -3.8 -3.8 -4.28571 -1.42857 1.42857 -4.28571 -3.8 
1.42857 -5.47143 -1.42857 3.8 -4.28571 -1.42857 -4.28571 -3.8 -1.42857 
-4.28571 -1.42857 -3.8 -5.47143 -1.42857 -1.42857 4.28572 -3.8 -1.42857 
4.28572 -1.42857 -3.8 5.47143 -1.42857 -1.42857 -5.47143 1.42857 -1.42857 
-4.28571 1.42857 -3.8 4.28572 1.42857 -3.8 5.47143 1.42857 -1.42857 
-4.28571 3.8 -1.42857 -1.42857 4.28572 -3.8 -3.8 4.28572 -1.42857 
1.42857 4.28572 -3.8 4.28572 3.8 -1.42857 3.8 4.28572 -1.42857 
-1.42857 5.47143 -1.42857 1.42857 5.47143 -1.42857 -3.8 -4.28571 1.42857 
-1.42857 -5.47143 1.42857 1.42857 -5.47143 1.42857 3.8 -4.28571 1.42857 
-5.47143 -1.42857 1.42857 -4.28571 -3.8 1.42857 4.28572 -3.8 1.42857 
5.47143 -1.42857 1.42857 -5.47143 1.42857 1.42857 5.47143 1.42857 1.42857 
-4.28571 3.8 1.42857 -3.8 4.28572 1.42857 3.8 4.28572 1.42857 
4.28572 3.8 1.42857 -1.42857 5.47143 1.42857 1.42857 5.47143 1.42857 
-1.42857 -4.28571 3.8 1.42857 -4.28571 3.8 -4.28571 -1.42857 3.8 
-1.42857 -3.8 4.28572 -3.8 -1.42857 4.28572 1.42857 -3.8 4.28572 
4.28572 -1.42857 3.8 3.8 -1.42857 4.28572 -4.28571 1.42857 3.8 
-3.8 1.42857 4.28572 4.28572 1.42857 3.8 3.8 1.42857 4.28572 
-1.42857 3.8 4.28572 -1.42857 4.28572 3.8 1.42857 3.8 4.28572 
1.42857 4.28572 3.8 -1.42857 -1.42857 5.47143 1.42857 -1.42857 5.47143 
-1.42857 1.42857 5.47143 1.42857 1.42857 5.47143 
CELLS 125 829
4 32 33 34 0 
4 36 37 35 1 
4 39 42 38 2 
4 43 40 41 3 
4 44 45 46 4 
4 48 49 47 5 
4 50 51 52 6 
4 4 6 7 0 
4 8 9 1 5 
4 53 55 54 8 
4 57 60 56 10 
4 11 12 10 2 
4 13 14 3 15 
4 64 58 59 15 
4 61 66 62 11 
4 67 63 65 13 
4 69 68 84 16 
4 85 71 70 17 
4 73 72 86 18 
4 19 18 20 16 
4 21 17 22 23 
4 90 75 74 23 
4 78 92 76 24 
4 25 24 26 27 
4 28 29 30 31 
4 81 77 94 30 
4 82 97 79 25 
4 83 80 99 28 
4 87 88 100 19 
4 101 91 89 21 
4 96 102 93 27 
4 98 95 103 31 
5 34 0 6 51 50 
5 32 45 4 0 46 
5 6 4 46 50 0 
5 50 46 32 34 0 
5 47 36 1 5 37 
5 49 5 8 53 54 
5 1 37 54 8 5 
5 37 47 49 54 5 
5 38 57 10 2 60 
5 42 2 11 61 62 
5 10 60 62 11 2 
5 60 38 42 62 2 
5 58 41 3 15 43 
5 64 15 13 65 63 
5 3 43 63 13 15 
5 43 58 64 63 15 
5 68 16 18 73 86 
5 84 87 19 16 88 
5 18 19 88 86 16 
5 86 88 84 68 16 
5 74 23 17 71 85 
5 90 91 21 23 89 
5 17 21 89 85 23 
5 85 89 90 74 23 
5 93 27 24 92 78 
5 96 97 25 27 79 
5 24 25 79 78 27 
5 78 79 96 93 27 
5 95 94 30 31 81 
5 98 31 28 99 80 
5 30 81 80 28 31 
5 81 95 98 80 31 
6 0 33 32 1 35 36 
6 0 34 33 2 38 39 
6 1 35 37 3 40 41 
6 3 40 43 2 39 42 
6 4 45 44 5 47 48 
6 1 9 5 0 7 4 
6 6 52 51 10 56 57 
6 10 12 2 6 7 0 
6 3 14 15 1 9 8 
6 8 54 55 15 58 59 
6 2 12 11 3 14 13 
6 13 63 67 11 61 66 
6 16 68 69 4 46 44 
6 17 70 71 5 48 49 
6 18 72 73 6 52 50 
6 6 7 4 18 20 16 
6 5 9 8 17 22 23 
6 23 74 75 8 53 55 
6 10 56 60 24 76 78 
6 24 26 25 10 12 11 
6 15 14 13 30 29 28 
6 30 77 81 15 59 64 
6 11 62 66 25 79 82 
6 28 80 83 13 65 67 
6 16 69 84 17 70 85 
6 17 22 21 16 20 19 
6 24 76 92 18 72 86 
6 18 20 19 24 26 27 
6 30 29 31 23 22 21 
6 23 75 90 30 77 94 
6 31 29 28 27 26 25 
6 25 97 82 28 99 83 
6 19 87 100 21 89 101 
6 27 93 102 19 88 100 
6 21 91 101 31 95 103 
6 27 102 96 31 103 98 
8 33 35 40 39 0 1 3 2 
8 36 1 0 32 47 5 4 45 
8 57 10 6 51 38 2 0 34 
8 0 1 3 2 7 9 14 12 
8 41 3 1 37 58 15 8 54 
8 63 13 11 61 43 3 2 42 
8 4 5 17 16 44 48 70 69 
8 68 16 4 46 73 18 6 50 
8 4 5 9 7 16 17 22 20 
8 74 23 8 53 71 17 5 49 
8 6 18 24 10 52 72 76 56 
8 6 7 12 10 18 20 26 24 
8 7 9 14 12 20 22 29 26 
8 9 8 15 14 22 23 30 29 
8 55 75 77 59 8 23 30 15 
8 78 24 10 60 79 25 11 62 
8 12 14 13 11 26 29 28 25 
8 80 28 13 65 81 30 15 64 
8 66 67 83 82 11 13 28 25 
8 85 17 16 84 89 21 19 87 
8 93 27 19 88 92 24 18 86 
8 20 22 29 26 19 21 31 27 
8 94 30 23 90 95 31 21 91 
8 98 31 27 96 99 28 25 97 
8 19 21 31 27 100 101 103 102 

CELL_TYPES 125
10
10
10
10
10
10
10
10
10
10
10
10
10
10
10
10
10
10
10
10
10
10
10
10
10
10
10
10
10
10
10
10
14
14
14
14
14
14
14
14
14
14
14
14
14
14
14
14
14
14
14
14
14
14
14
14
14
14
14
14
14
14
14
14
13
13
13
13
13
13
13
13
13
13
13
13
13
13
13
13
13
13
13
13
13
13
13
13
13
13
13
13
13
13
13
13
13
13
13
13
12
12
12
12
12
12
12
12
12
12
12
12
12
12
12
12
12
12
12
12
12
12
12
12
12

CELL_DATA 125
FIELD FieldData 1
zonal 1 125 float
3.56613 2.80571 3.86304 4.33463 3.13634 2.12359 3.80952 3.36329 2.30731 
3.60694 3.22385 3.33105 3.1308 5.27301 1.67185 4.44287 4.24137 3.06001 
2.54785 2.85161 3.48445 3.7021 2.99338 3.14247 3.72927 4.19433 2.99125 
3.69615 3.14625 3.86101 3.32322 3.53237 3.36329 3.36329 3.36329 3.36329 
2.30731 2.30731 2.30731 2.30731 3.33105 3.33105 3.33105 3.33105 3.1308 
3.1308 3.1308 3.1308 2.85161 2.85161 2.85161 2.85161 3.48445 3.48445 
3.48445 3.48445 3.14247 3.14247 3.14247 3.14247 3.72927 3.72927 3.72927 
3.72927 3.35377 4.11095 3.42525 3.77332 3.26446 3.20132 4.2062 3.61159 
3.34643 4.11383 4.21548 4.18059 3.15464 3.32518 3.3109 2.84739 3.92266 
3.91791 3.60468 3.25119 3.96785 4.57609 2.63734 4.28964 2.87118 3.13767 
2.19466 2.79341 3.55641 3.88547 3.39691 3.35302 3.4478 3.00056 3.67648 
3.34054 3.64261 3.20132 3.61159 3.27607 3.34643 4.21548 3.13377 2.84739 
2.58455 3.92266 3.23019 3.19191 2.76836 3.41072 4.32361 3.25119 3.71761 
3.96785 3.67984 3.13767 2.79341 3.17281 3.55641 3.39691 3.42226 
POINT_DATA 104
SCALARS nodal float
LOOKUP_TABLE default
3.51926 3.60442 3.89548 3.644 3.11058 3.83538 3.2775 3.21389 3.87295 
3.50135 3.46969 3.67802 3.69377 3.92713 3.81844 4.01118 3.34144 3.49814 
3.15523 3.48267 3.39556 3.63378 3.57536 3.75538 3.38903 3.54463 3.53466 
3.49717 3.77491 3.69817 3.87508 3.60962 3.44712 3.59786 3.53308 3.64167 
2.96522 3.76681 3.59996 3.85221 3.80338 4.58791 3.86211 3.96582 3.19797 
3.37764 3.12432 3.00449 3.63989 3.69824 3.1527 3.49199 3.3189 3.70462 
3.81246 4.13389 3.55832 3.52758 4.65033 4.11996 3.27633 3.82514 3.31174 
4.01395 4.05295 4.03866 3.63066 4.00547 3.21004 3.25567 3.41901 3.62203 
2.99765 3.17838 3.66577 3.80588 3.36425 3.96839 3.36496 3.39141 3.91715 
3.93418 3.52851 3.80966 3.44518 3.65762 3.14984 3.46919 3.20551 3.68068 
3.69148 3.67081 3.4259 3.44429 3.79592 3.75079 3.41368 3.42175 3.67909 
3.70719 3.5336 3.6851 3.51565 3.55611 
