# vtk DataFile Version 3.0
vtk output
ASCII
DATASET UNSTRUCTURED_GRID
POINTS 64 float
-9.93559 -9.83971 0 -7.22557 -9.83122 0 -7.34505 -7.17676 0 
-9.58893 -7.1787 0 -4.29127 -9.85351 0 -4.33336 -7.50177 0 
-1.43695 -10.1312 0 -1.49523 -6.97364 0 1.49648 -9.94485 0 
1.45919 -7.02834 0 4.33475 -9.97862 0 4.32148 -7.0282 0 
7.13456 -9.93322 0 7.17321 -6.98369 0 9.94637 -9.93633 0 
9.89242 -7.05602 0 -7.2211 -4.50123 0 -9.98467 -4.41717 0 
-4.21582 -4.40007 0 -1.39724 -4.32187 0 1.46159 -4.2852 0 
4.32911 -4.24666 0 7.27853 -4.395 0 9.79026 -4.32866 0 
-7.13969 -1.30597 0 -10.0596 -1.4045 0 -4.19899 -1.37239 0 
-1.39392 -1.38548 0 1.4975 -1.40167 0 4.32749 -1.39114 0 
7.11468 -1.3842 0 9.89023 -1.36167 0 -7.15268 1.48558 0 
-9.96046 1.47056 0 -4.25365 1.45674 0 -1.38569 1.45381 0 
1.4832 1.45182 0 4.36257 1.45758 0 7.14293 1.48416 0 
9.838 1.44835 0 -7.15341 4.25207 0 -9.96516 4.25299 0 
-4.26926 4.2137 0 -1.35551 4.25391 0 1.45689 4.28135 0 
4.37274 4.31698 0 7.05444 4.1019 0 9.90172 4.14961 0 
-7.15203 7.14178 0 -9.96649 7.11932 0 -4.29636 7.17335 0 
-1.3222 7.13243 0 1.53338 7.10699 0 4.30781 6.94528 0 
6.97816 6.99299 0 10.031 7.0938 0 -7.12308 9.96128 0 
-9.96237 9.96648 0 -4.28085 9.98878 0 -1.38877 9.95374 0 
1.45433 9.89968 0 4.22697 9.85578 0 7.07882 9.99855 0 
9.98456 9.97839 0 
CELLS 49 245
4 0 1 2 3 
4 1 4 5 2 
4 4 6 7 5 
4 6 8 9 7 
4 8 10 11 9 
4 10 12 13 11 
4 12 14 15 13 
4 3 2 16 17 
4 2 5 18 16 
4 5 7 19 18 
4 7 9 20 19 
4 9 11 21 20 
4 11 13 22 21 
4 13 15 23 22 
4 17 16 24 25 
4 16 18 26 24 
4 18 19 27 26 
4 19 20 28 27 
4 20 21 29 28 
4 21 22 30 29 
4 22 23 31 30 
4 25 24 32 33 
4 24 26 34 32 
4 26 27 35 34 
4 27 28 36 35 
4 28 29 37 36 
4 29 30 38 37 
4 30 31 39 38 
4 33 32 40 41 
4 32 34 42 40 
4 34 35 43 42 
4 35 36 44 43 
4 36 37 45 44 
4 37 38 46 45 
4 38 39 47 46 
4 41 40 48 49 
4 40 42 50 48 
4 42 43 51 50 
4 43 44 52 51 
4 44 45 53 52 
4 45 46 54 53 
4 46 47 55 54 
4 49 48 56 57 
4 48 50 58 56 
4 50 51 59 58 
4 51 52 60 59 
4 52 53 61 60 
4 53 54 62 61 
4 54 55 63 62 

CELL_TYPES 49
9
9
9
9
9
9
9
9
9
9
9
9
9
9
9
9
9
9
9
9
9
9
9
9
9
9
9
9
9
9
9
9
9
9
9
9
9
9
9
9
9
9
9
9
9
9
9
9
9

CELL_DATA 49
FIELD FieldData 1
zonal 1 49 float
2.93286 2.94926 2.6796 2.47013 2.81913 3.10692 3.44213 3.55468 3.50299 
3.15464 3.13377 3.32518 3.00976 3.60601 3.32961 3.3109 2.84739 2.58455 
3.92266 3.91791 4.23998 3.00715 3.23019 3.19191 2.76836 3.41072 4.32361 
5.29745 4.35216 3.60468 3.25119 3.71761 3.96785 4.57609 5.00485 3.20481 
3.0136 2.63734 3.67984 4.28964 4.56979 4.88835 2.74308 2.9156 2.23087 
3.53692 4.29173 4.09175 3.26901 
POINT_DATA 64
SCALARS nodal float
LOOKUP_TABLE default
3.7098 3.46036 3.80967 4.27934 2.54554 4.1525 2.16111 3.14107 3.1213 
3.3094 3.14766 3.32723 3.4543 3.67141 3.54554 3.7246 3.06474 3.27539 
3.18123 3.33364 3.50954 3.64818 4.12404 3.85019 2.79585 3.00477 3.15936 
3.38942 3.57286 3.75936 3.89817 3.83568 3.34127 3.44397 3.39176 3.54004 
3.70224 3.87968 4.10577 3.9926 3.41504 3.50176 3.35586 3.54914 3.78006 
3.95018 4.02048 3.8297 3.36466 3.46695 3.15978 3.50775 3.86734 4.55308 
3.34139 3.48656 3.4322 3.48366 3.41862 3.56983 3.75622 3.81282 3.57887 
3.63372 
